   8   8   0   0
  0.1738377E+02  0.5180973E-09  0.5180973E-09  0.5180973E-09  0.5000000E-15
  1.000000000000000E-004
  CAR 
 unknown system                          
     13.90475086    -40.09796905  301      3.68923634      1.00000000
    -40.098  0.0000E+00  0.0000E+00
    -39.918  0.0000E+00  0.0000E+00
    -39.738  0.0000E+00  0.0000E+00
    -39.558  0.0000E+00  0.0000E+00
    -39.378  0.0000E+00  0.0000E+00
    -39.198  0.0000E+00  0.0000E+00
    -39.018  0.0000E+00  0.0000E+00
    -38.838  0.0000E+00  0.0000E+00
    -38.658  0.0000E+00  0.0000E+00
    -38.478  0.0000E+00  0.0000E+00
    -38.298  0.0000E+00  0.0000E+00
    -38.118  0.0000E+00  0.0000E+00
    -37.938  0.0000E+00  0.0000E+00
    -37.758  0.0000E+00  0.0000E+00
    -37.578  0.6666E+01  0.1200E+01
    -37.398  0.0000E+00  0.1200E+01
    -37.218  0.0000E+00  0.1200E+01
    -37.038  0.0000E+00  0.1200E+01
    -36.858  0.0000E+00  0.1200E+01
    -36.678  0.0000E+00  0.1200E+01
    -36.498  0.0000E+00  0.1200E+01
    -36.318  0.0000E+00  0.1200E+01
    -36.138  0.0000E+00  0.1200E+01
    -35.958  0.0000E+00  0.1200E+01
    -35.778  0.0000E+00  0.1200E+01
    -35.598  0.0000E+00  0.1200E+01
    -35.418  0.0000E+00  0.1200E+01
    -35.238  0.0000E+00  0.1200E+01
    -35.058  0.0000E+00  0.1200E+01
    -34.878  0.0000E+00  0.1200E+01
    -34.698  0.0000E+00  0.1200E+01
    -34.518  0.0000E+00  0.1200E+01
    -34.338  0.0000E+00  0.1200E+01
    -34.158  0.0000E+00  0.1200E+01
    -33.978  0.0000E+00  0.1200E+01
    -33.798  0.0000E+00  0.1200E+01
    -33.618  0.0000E+00  0.1200E+01
    -33.438  0.0000E+00  0.1200E+01
    -33.258  0.0000E+00  0.1200E+01
    -33.078  0.0000E+00  0.1200E+01
    -32.898  0.0000E+00  0.1200E+01
    -32.718  0.0000E+00  0.1200E+01
    -32.538  0.0000E+00  0.1200E+01
    -32.358  0.0000E+00  0.1200E+01
    -32.178  0.0000E+00  0.1200E+01
    -31.998  0.0000E+00  0.1200E+01
    -31.818  0.0000E+00  0.1200E+01
    -31.638  0.0000E+00  0.1200E+01
    -31.458  0.0000E+00  0.1200E+01
    -31.278  0.0000E+00  0.1200E+01
    -31.098  0.0000E+00  0.1200E+01
    -30.918  0.0000E+00  0.1200E+01
    -30.737  0.0000E+00  0.1200E+01
    -30.557  0.0000E+00  0.1200E+01
    -30.377  0.0000E+00  0.1200E+01
    -30.197  0.0000E+00  0.1200E+01
    -30.017  0.0000E+00  0.1200E+01
    -29.837  0.0000E+00  0.1200E+01
    -29.657  0.0000E+00  0.1200E+01
    -29.477  0.0000E+00  0.1200E+01
    -29.297  0.0000E+00  0.1200E+01
    -29.117  0.0000E+00  0.1200E+01
    -28.937  0.0000E+00  0.1200E+01
    -28.757  0.0000E+00  0.1200E+01
    -28.577  0.0000E+00  0.1200E+01
    -28.397  0.0000E+00  0.1200E+01
    -28.217  0.0000E+00  0.1200E+01
    -28.037  0.0000E+00  0.1200E+01
    -27.857  0.0000E+00  0.1200E+01
    -27.677  0.0000E+00  0.1200E+01
    -27.497  0.0000E+00  0.1200E+01
    -27.317  0.0000E+00  0.1200E+01
    -27.137  0.0000E+00  0.1200E+01
    -26.957  0.0000E+00  0.1200E+01
    -26.777  0.0000E+00  0.1200E+01
    -26.597  0.0000E+00  0.1200E+01
    -26.417  0.0000E+00  0.1200E+01
    -26.237  0.0000E+00  0.1200E+01
    -26.057  0.0000E+00  0.1200E+01
    -25.877  0.0000E+00  0.1200E+01
    -25.697  0.0000E+00  0.1200E+01
    -25.517  0.0000E+00  0.1200E+01
    -25.337  0.0000E+00  0.1200E+01
    -25.157  0.0000E+00  0.1200E+01
    -24.977  0.0000E+00  0.1200E+01
    -24.797  0.0000E+00  0.1200E+01
    -24.617  0.0000E+00  0.1200E+01
    -24.437  0.0000E+00  0.1200E+01
    -24.257  0.0000E+00  0.1200E+01
    -24.077  0.0000E+00  0.1200E+01
    -23.897  0.0000E+00  0.1200E+01
    -23.717  0.0000E+00  0.1200E+01
    -23.537  0.0000E+00  0.1200E+01
    -23.357  0.0000E+00  0.1200E+01
    -23.177  0.0000E+00  0.1200E+01
    -22.997  0.0000E+00  0.1200E+01
    -22.817  0.0000E+00  0.1200E+01
    -22.637  0.0000E+00  0.1200E+01
    -22.457  0.0000E+00  0.1200E+01
    -22.277  0.0000E+00  0.1200E+01
    -22.097  0.0000E+00  0.1200E+01
    -21.917  0.0000E+00  0.1200E+01
    -21.737  0.0000E+00  0.1200E+01
    -21.557  0.0000E+00  0.1200E+01
    -21.377  0.0000E+00  0.1200E+01
    -21.197  0.0000E+00  0.1200E+01
    -21.017  0.0000E+00  0.1200E+01
    -20.837  0.0000E+00  0.1200E+01
    -20.657  0.0000E+00  0.1200E+01
    -20.477  0.0000E+00  0.1200E+01
    -20.297  0.0000E+00  0.1200E+01
    -20.117  0.0000E+00  0.1200E+01
    -19.937  0.0000E+00  0.1200E+01
    -19.757  0.0000E+00  0.1200E+01
    -19.577  0.0000E+00  0.1200E+01
    -19.397  0.0000E+00  0.1200E+01
    -19.217  0.0000E+00  0.1200E+01
    -19.037  0.0000E+00  0.1200E+01
    -18.857  0.0000E+00  0.1200E+01
    -18.677  0.0000E+00  0.1200E+01
    -18.497  0.0000E+00  0.1200E+01
    -18.317  0.0000E+00  0.1200E+01
    -18.137  0.0000E+00  0.1200E+01
    -17.957  0.0000E+00  0.1200E+01
    -17.777  0.0000E+00  0.1200E+01
    -17.597  0.0000E+00  0.1200E+01
    -17.417  0.0000E+00  0.1200E+01
    -17.237  0.0000E+00  0.1200E+01
    -17.057  0.0000E+00  0.1200E+01
    -16.877  0.0000E+00  0.1200E+01
    -16.697  0.0000E+00  0.1200E+01
    -16.517  0.0000E+00  0.1200E+01
    -16.337  0.0000E+00  0.1200E+01
    -16.157  0.0000E+00  0.1200E+01
    -15.977  0.0000E+00  0.1200E+01
    -15.797  0.0000E+00  0.1200E+01
    -15.617  0.0000E+00  0.1200E+01
    -15.437  0.0000E+00  0.1200E+01
    -15.257  0.0000E+00  0.1200E+01
    -15.077  0.0000E+00  0.1200E+01
    -14.897  0.0000E+00  0.1200E+01
    -14.717  0.0000E+00  0.1200E+01
    -14.537  0.0000E+00  0.1200E+01
    -14.357  0.0000E+00  0.1200E+01
    -14.177  0.0000E+00  0.1200E+01
    -13.997  0.0000E+00  0.1200E+01
    -13.817  0.0000E+00  0.1200E+01
    -13.637  0.0000E+00  0.1200E+01
    -13.457  0.0000E+00  0.1200E+01
    -13.277  0.0000E+00  0.1200E+01
    -13.097  0.0000E+00  0.1200E+01
    -12.917  0.0000E+00  0.1200E+01
    -12.737  0.0000E+00  0.1200E+01
    -12.557  0.0000E+00  0.1200E+01
    -12.377  0.0000E+00  0.1200E+01
    -12.197  0.0000E+00  0.1200E+01
    -12.017  0.0000E+00  0.1200E+01
    -11.837  0.0000E+00  0.1200E+01
    -11.657  0.0000E+00  0.1200E+01
    -11.477  0.0000E+00  0.1200E+01
    -11.297  0.0000E+00  0.1200E+01
    -11.117  0.0000E+00  0.1200E+01
    -10.937  0.0000E+00  0.1200E+01
    -10.756  0.0000E+00  0.1200E+01
    -10.576  0.0000E+00  0.1200E+01
    -10.396  0.0000E+00  0.1200E+01
    -10.216  0.0000E+00  0.1200E+01
    -10.036  0.0000E+00  0.1200E+01
     -9.856  0.0000E+00  0.1200E+01
     -9.676  0.0000E+00  0.1200E+01
     -9.496  0.0000E+00  0.1200E+01
     -9.316  0.0000E+00  0.1200E+01
     -9.136  0.8680E-02  0.1202E+01
     -8.956  0.4531E-01  0.1210E+01
     -8.776  0.1443E-01  0.1214E+01
     -8.596  0.1074E-01  0.1232E+01
     -8.416  0.5743E-02  0.1243E+01
     -8.236  0.2078E+00  0.1289E+01
     -8.056  0.2083E+00  0.1327E+01
     -7.876  0.9431E-01  0.1344E+01
     -7.696  0.5210E-01  0.1398E+01
     -7.516  0.1350E+00  0.1535E+01
     -7.336  0.1562E+00  0.1600E+01
     -7.156  0.0000E+00  0.1600E+01
     -6.976  0.0000E+00  0.1600E+01
     -6.796  0.0000E+00  0.1600E+01
     -6.616  0.0000E+00  0.1600E+01
     -6.436  0.0000E+00  0.1600E+01
     -6.256  0.0000E+00  0.1600E+01
     -6.076  0.0000E+00  0.1600E+01
     -5.896  0.0000E+00  0.1600E+01
     -5.716  0.0000E+00  0.1600E+01
     -5.536  0.0000E+00  0.1600E+01
     -5.356  0.0000E+00  0.1600E+01
     -5.176  0.0000E+00  0.1600E+01
     -4.996  0.0000E+00  0.1600E+01
     -4.816  0.0000E+00  0.1600E+01
     -4.636  0.0000E+00  0.1600E+01
     -4.456  0.0000E+00  0.1600E+01
     -4.276  0.0000E+00  0.1600E+01
     -4.096  0.0000E+00  0.1600E+01
     -3.916  0.0000E+00  0.1600E+01
     -3.736  0.0000E+00  0.1600E+01
     -3.556  0.0000E+00  0.1600E+01
     -3.376  0.0000E+00  0.1600E+01
     -3.196  0.0000E+00  0.1600E+01
     -3.016  0.0000E+00  0.1600E+01
     -2.836  0.0000E+00  0.1600E+01
     -2.656  0.0000E+00  0.1600E+01
     -2.476  0.0000E+00  0.1600E+01
     -2.296  0.0000E+00  0.1600E+01
     -2.116  0.0000E+00  0.1600E+01
     -1.936  0.0000E+00  0.1600E+01
     -1.756  0.0000E+00  0.1600E+01
     -1.576  0.0000E+00  0.1600E+01
     -1.396  0.1346E-03  0.1600E+01
     -1.216  0.0000E+00  0.1606E+01
     -1.036  0.0000E+00  0.1606E+01
     -0.856  0.2929E-02  0.1644E+01
     -0.676  0.2604E-01  0.1686E+01
     -0.496  0.2085E+00  0.1723E+01
     -0.316  0.9002E-09  0.1742E+01
     -0.136  0.1042E+00  0.1902E+01
      0.044  0.0000E+00  0.1902E+01
      0.224  0.1856E-05  0.1902E+01
      0.404  0.4192E-06  0.1939E+01
      0.584  0.0000E+00  0.2014E+01
      0.764  0.6944E-01  0.2027E+01
      0.944  0.1153E-04  0.2027E+01
      1.124  0.1325E-06  0.2036E+01
      1.304  0.2228E+00  0.2104E+01
      1.484  0.2772E+00  0.2208E+01
      1.664  0.1042E+00  0.2233E+01
      1.844  0.4383E-02  0.2234E+01
      2.024  0.2083E+00  0.2280E+01
      2.204  0.3124E+00  0.2430E+01
      2.384  0.2224E+00  0.2470E+01
      2.564  0.4991E-01  0.2514E+01
      2.744  0.1731E-03  0.2570E+01
      2.924  0.3321E+00  0.2668E+01
      3.104  0.0000E+00  0.2733E+01
      3.284  0.2430E+00  0.2777E+01
      3.464  0.8330E-02  0.2778E+01
      3.644  0.2604E-01  0.2800E+01
      3.824  0.0000E+00  0.2800E+01
      4.004  0.0000E+00  0.2800E+01
      4.184  0.0000E+00  0.2800E+01
      4.364  0.0000E+00  0.2800E+01
      4.544  0.0000E+00  0.2800E+01
      4.724  0.0000E+00  0.2800E+01
      4.904  0.0000E+00  0.2800E+01
      5.084  0.0000E+00  0.2800E+01
      5.264  0.0000E+00  0.2800E+01
      5.444  0.0000E+00  0.2800E+01
      5.624  0.0000E+00  0.2800E+01
      5.804  0.0000E+00  0.2800E+01
      5.984  0.0000E+00  0.2800E+01
      6.164  0.0000E+00  0.2800E+01
      6.344  0.2601E-01  0.2805E+01
      6.524  0.0000E+00  0.2805E+01
      6.704  0.0000E+00  0.2805E+01
      6.884  0.0000E+00  0.2805E+01
      7.064  0.0000E+00  0.2814E+01
      7.244  0.1202E-09  0.2814E+01
      7.424  0.1427E+00  0.2841E+01
      7.604  0.0000E+00  0.2853E+01
      7.784  0.6882E-02  0.2854E+01
      7.964  0.4166E+00  0.2933E+01
      8.144  0.5208E-01  0.2948E+01
      8.324  0.0000E+00  0.2948E+01
      8.504  0.1215E+00  0.2970E+01
      8.684  0.0000E+00  0.2980E+01
      8.864  0.4666E+00  0.3101E+01
      9.045  0.3609E-01  0.3146E+01
      9.225  0.3125E+00  0.3242E+01
      9.405  0.2083E+00  0.3280E+01
      9.585  0.6792E-03  0.3280E+01
      9.765  0.0000E+00  0.3317E+01
      9.945  0.1251E+00  0.3340E+01
     10.125  0.3041E-06  0.3392E+01
     10.305  0.2083E+00  0.3486E+01
     10.485  0.8680E-01  0.3502E+01
     10.665  0.2093E+00  0.3539E+01
     10.845  0.0000E+00  0.3558E+01
     11.025  0.0000E+00  0.3558E+01
     11.205  0.3903E-01  0.3565E+01
     11.385  0.6944E-01  0.3589E+01
     11.565  0.0000E+00  0.3600E+01
     11.745  0.0000E+00  0.3600E+01
     11.925  0.0000E+00  0.3600E+01
     12.105  0.0000E+00  0.3600E+01
     12.285  0.0000E+00  0.3600E+01
     12.465  0.0000E+00  0.3600E+01
     12.645  0.0000E+00  0.3600E+01
     12.825  0.0000E+00  0.3600E+01
     13.005  0.0000E+00  0.3600E+01
     13.185  0.0000E+00  0.3600E+01
     13.365  0.0000E+00  0.3600E+01
     13.545  0.0000E+00  0.3600E+01
     13.725  0.0000E+00  0.3600E+01
     13.905  0.0000E+00  0.3600E+01
