    8    8   20    1
  0.1703609E+02  0.5146200E-09  0.5146200E-09  0.5146200E-09  0.5000000E-15
  1.000000000000000E-004
  CAR 
 unknown system                          
     56     10     36
 
  0.0000000E+00  0.0000000E+00  0.0000000E+00  0.1562500E-01
    1      -37.421629
    2      -37.421629
    3      -37.421629
    4      -37.417283
    5      -37.417283
    6      -37.417283
    7      -37.417283
    8      -37.417283
    9      -37.417283
   10      -37.414209
   11      -37.414209
   12      -37.414209
   13       -9.112277
   14       -7.292956
   15       -7.292956
   16       -7.292956
   17       -0.659199
   18       -0.659199
   19       -0.659199
   20        1.988216
   21        1.988216
   22        1.988216
   23        1.988216
   24        1.988216
   25        1.988216
   26        3.768648
   27        3.768648
   28        3.768648
   29        6.544251
   30        6.544251
   31        6.544251
   32        7.626276
   33        7.905891
   34        7.905891
   35        7.905891
   36       11.597384
 
  0.2500000E+00  0.0000000E+00  0.0000000E+00  0.9375000E-01
    1      -37.420996
    2      -37.420996
    3      -37.420511
    4      -37.417915
    5      -37.417915
    6      -37.417308
    7      -37.417308
    8      -37.416883
    9      -37.416883
   10      -37.415268
   11      -37.414628
   12      -37.414628
   13       -8.896696
   14       -7.630382
   15       -7.266126
   16       -7.266126
   17       -0.398500
   18       -0.398500
   19       -0.156611
   20        1.375639
   21        1.375639
   22        1.597312
   23        1.597312
   24        2.187989
   25        2.187989
   26        2.725036
   27        3.419613
   28        3.419613
   29        7.194138
   30        7.596514
   31        7.596514
   32        8.229471
   33        8.786860
   34        9.070719
   35        9.070719
   36       10.594001
 
  0.5000000E+00  0.0000000E+00  0.0000000E+00  0.4687500E-01
    1      -37.419470
    2      -37.419470
    3      -37.419470
    4      -37.419470
    5      -37.418210
    6      -37.418210
    7      -37.417322
    8      -37.417322
    9      -37.415849
   10      -37.415849
   11      -37.415849
   12      -37.415849
   13       -8.320336
   14       -8.320336
   15       -7.238787
   16       -7.238787
   17        0.344779
   18        0.344779
   19        0.344779
   20        0.344779
   21        1.106259
   22        1.106259
   23        1.278841
   24        1.278841
   25        2.735157
   26        2.735157
   27        2.735157
   28        2.735157
   29        8.833646
   30        8.833646
   31        9.111138
   32        9.111138
   33        9.174897
   34        9.174897
   35       11.659333
   36       11.659362
 
  0.2500000E+00  0.2500000E+00  0.0000000E+00  0.1875000E+00
    1      -37.420520
    2      -37.420520
    3      -37.420402
    4      -37.418974
    5      -37.417470
    6      -37.417470
    7      -37.416773
    8      -37.416710
    9      -37.416650
   10      -37.416650
   11      -37.415091
   12      -37.414302
   13       -8.694291
   14       -7.551044
   15       -7.551044
   16       -7.289366
   17       -0.181207
   18       -0.181207
   19       -0.141272
   20        0.405572
   21        1.597283
   22        1.597283
   23        1.745443
   24        2.079273
   25        2.079273
   26        2.320234
   27        3.001583
   28        3.648073
   29        7.630696
   30        8.147899
   31        8.147899
   32        9.272898
   33        9.346715
   34        9.346715
   35       10.416359
   36       10.860061
 
  0.5000000E+00  0.2500000E+00  0.0000000E+00  0.1875000E+00
    1      -37.420097
    2      -37.420097
    3      -37.419062
    4      -37.419062
    5      -37.418882
    6      -37.418882
    7      -37.416338
    8      -37.416338
    9      -37.416304
   10      -37.416304
   11      -37.415249
   12      -37.415249
   13       -8.162570
   14       -8.162570
   15       -7.391742
   16       -7.391742
   17       -0.132925
   18       -0.132925
   19        0.561194
   20        0.561194
   21        0.590283
   22        0.590283
   23        2.211457
   24        2.211457
   25        2.221676
   26        2.221676
   27        3.040221
   28        3.040221
   29        9.029474
   30        9.029474
   31        9.644021
   32        9.644021
   33       10.108229
   34       10.108229
   35       10.872290
   36       10.898111
 
  0.5000000E+00  0.5000000E+00  0.0000000E+00  0.4687500E-01
    1      -37.420024
    2      -37.420024
    3      -37.420024
    4      -37.420024
    5      -37.417549
    6      -37.417549
    7      -37.417549
    8      -37.417549
    9      -37.415231
   10      -37.415231
   11      -37.415231
   12      -37.415231
   13       -7.775803
   14       -7.775803
   15       -7.775803
   16       -7.775803
   17       -0.104732
   18       -0.104732
   19       -0.104732
   20       -0.104732
   21        1.282150
   22        1.282150
   23        1.282150
   24        1.282150
   25        3.085871
   26        3.085871
   27        3.085871
   28        3.085871
   29        9.392314
   30        9.392314
   31        9.392314
   32        9.392314
   33       11.534309
   34       11.552696
   35       11.577987
   36       11.609198
 
  0.2500000E+00  0.2500000E+00  0.2500000E+00  0.1250000E+00
    1      -37.420963
    2      -37.420963
    3      -37.420963
    4      -37.418418
    5      -37.417392
    6      -37.417392
    7      -37.417392
    8      -37.416326
    9      -37.416326
   10      -37.416326
   11      -37.414698
   12      -37.414698
   13       -8.508175
   14       -7.514571
   15       -7.514571
   16       -7.514571
   17       -0.483021
   18       -0.483021
   19       -0.483021
   20        0.835710
   21        1.419607
   22        1.419607
   23        1.419607
   24        2.485353
   25        2.485353
   26        2.485353
   27        3.418137
   28        3.418137
   29        8.130733
   30        8.130733
   31        8.130733
   32        8.716455
   33       10.479320
   34       10.479320
   35       10.479320
   36       11.542505
 
  0.5000000E+00  0.2500000E+00  0.2500000E+00  0.1875000E+00
    1      -37.421366
    2      -37.421366
    3      -37.420320
    4      -37.420320
    5      -37.417428
    6      -37.417428
    7      -37.416025
    8      -37.416025
    9      -37.415523
   10      -37.415523
   11      -37.415475
   12      -37.415475
   13       -8.031634
   14       -8.031634
   15       -7.477085
   16       -7.477085
   17       -0.762138
   18       -0.762138
   19       -0.161707
   20       -0.161707
   21        1.492315
   22        1.492315
   23        2.537634
   24        2.537634
   25        2.784181
   26        2.784181
   27        2.919899
   28        2.919899
   29        9.001795
   30        9.001795
   31        9.350295
   32        9.350295
   33        9.826217
   34        9.826217
   35       10.381478
   36       10.381478
 
  0.5000000E+00  0.5000000E+00  0.2500000E+00  0.9375000E-01
    1      -37.421530
    2      -37.421530
    3      -37.421530
    4      -37.421530
    5      -37.416150
    6      -37.416150
    7      -37.416150
    8      -37.416150
    9      -37.415277
   10      -37.415277
   11      -37.415277
   12      -37.415277
   13       -7.732148
   14       -7.732148
   15       -7.732148
   16       -7.732148
   17       -0.857546
   18       -0.857546
   19       -0.857546
   20       -0.857546
   21        2.317181
   22        2.317181
   23        2.317181
   24        2.317181
   25        3.106900
   26        3.106900
   27        3.106900
   28        3.106900
   29        9.046470
   30        9.046470
   31        9.046470
   32        9.046470
   33       10.248647
   34       10.248647
   35       10.248647
   36       10.248647
 
  0.5000000E+00  0.5000000E+00  0.5000000E+00  0.1562500E-01
    1      -37.422409
    2      -37.422409
    3      -37.422409
    4      -37.422409
    5      -37.415205
    6      -37.415205
    7      -37.415205
    8      -37.415205
    9      -37.415205
   10      -37.415205
   11      -37.415205
   12      -37.415205
   13       -7.686890
   14       -7.686890
   15       -7.686890
   16       -7.686890
   17       -1.307079
   18       -1.307079
   19       -1.307079
   20       -1.307079
   21        3.128399
   22        3.128399
   23        3.128399
   24        3.128399
   25        3.128399
   26        3.128399
   27        3.128399
   28        3.128399
   29        8.216578
   30        8.216578
   31        8.216578
   32        8.216578
   33       10.634271
   34       10.634271
   35       10.634271
   36       10.634271
