       N       E                     dE             d eps       ncg     rms          rms(c)
DAV:   1     0.463269367374E+03    0.46327E+03   -0.34506E+04   880   0.154E+03
DAV:   2    -0.399779874261E+01   -0.46727E+03   -0.45358E+03   868   0.393E+02
DAV:   3    -0.366102148607E+02   -0.32612E+02   -0.32386E+02   856   0.101E+02
DAV:   4    -0.376455872749E+02   -0.10354E+01   -0.10332E+01   904   0.157E+01
DAV:   5    -0.376704331420E+02   -0.24846E-01   -0.24839E-01   852   0.241E+00    0.874E+00
DAV:   6    -0.363764286809E+02    0.12940E+01   -0.25367E+00   768   0.649E+00    0.647E+00
DAV:   7    -0.362178520433E+02    0.15858E+00   -0.77094E-01   892   0.339E+00    0.364E+00
DAV:   8    -0.362116328579E+02    0.62192E-02   -0.49060E-02   808   0.137E+00    0.102E+00
DAV:   9    -0.362108860784E+02    0.74678E-03   -0.23290E-03   884   0.269E-01    0.252E-01
DAV:  10    -0.362109256765E+02   -0.39598E-04   -0.50030E-04   872   0.115E-01    0.198E-02
DAV:  11    -0.362109173467E+02    0.83299E-05   -0.38538E-05   808   0.344E-02    0.150E-02
DAV:  12    -0.362109170299E+02    0.31675E-06   -0.16667E-06   856   0.780E-03    0.100E-03
DAV:  13    -0.362109170255E+02    0.44265E-08   -0.10587E-07   932   0.187E-03    0.103E-03
DAV:  14    -0.362109169609E+02    0.64625E-07   -0.16579E-08   720   0.514E-04    0.158E-03
DAV:  15    -0.362109170156E+02   -0.54703E-07   -0.14397E-08   728   0.614E-04    0.259E-04
DAV:  16    -0.362109170192E+02   -0.35907E-08   -0.34424E-10   432   0.101E-04
   1 F= -.36210917E+02 E0= -.36210917E+02  d E =-.362109E+02
