# epsilon and Z* of atoms 1 9
   4.07189832    0.00000000    0.00000000    0.00000000    4.07189832    0.00000000    0.00000000    0.00000000    4.07189832 
   0.96973581    0.00000000    0.00000000    0.00000000    0.96973581    0.00000000    0.00000000    0.00000000    0.96973581 
  -1.93947161    0.00000000    0.00000000    0.00000000   -1.93947161    0.00000000    0.00000000    0.00000000   -1.93947161 
