       N       E                     dE             d eps       ncg     rms          rms(c)
DAV:   1     0.461194805888E+03    0.46119E+03   -0.34538E+04   904   0.153E+03
DAV:   2    -0.277034904945E+01   -0.46397E+03   -0.45177E+03   884   0.386E+02
DAV:   3    -0.365570004544E+02   -0.33787E+02   -0.33575E+02   844   0.102E+02
DAV:   4    -0.376969030705E+02   -0.11399E+01   -0.11367E+01   884   0.165E+01
DAV:   5    -0.377247132473E+02   -0.27810E-01   -0.27805E-01   864   0.257E+00    0.829E+00
DAV:   6    -0.363724632357E+02    0.13523E+01   -0.27197E+00   776   0.661E+00    0.611E+00
DAV:   7    -0.362124913179E+02    0.15997E+00   -0.74685E-01   900   0.333E+00    0.353E+00
DAV:   8    -0.362049611865E+02    0.75301E-02   -0.49231E-02   804   0.136E+00    0.107E+00
DAV:   9    -0.362040941581E+02    0.86703E-03   -0.25033E-03   860   0.267E-01    0.318E-01
DAV:  10    -0.362041188298E+02   -0.24672E-04   -0.62444E-04   912   0.109E-01    0.191E-02
DAV:  11    -0.362041154122E+02    0.34175E-05   -0.28138E-05   836   0.286E-02    0.263E-02
DAV:  12    -0.362041145357E+02    0.87660E-06   -0.20347E-06   836   0.619E-03    0.338E-03
DAV:  13    -0.362041144549E+02    0.80747E-07   -0.19562E-07   888   0.202E-03    0.173E-03
DAV:  14    -0.362041144306E+02    0.24294E-07   -0.98954E-09   788   0.467E-04    0.196E-03
DAV:  15    -0.362041144729E+02   -0.42317E-07   -0.46885E-09   688   0.275E-04    0.851E-04
DAV:  16    -0.362041144601E+02    0.12849E-07   -0.15071E-10   428   0.867E-05    0.238E-04
DAV:  17    -0.362041144564E+02    0.37253E-08   -0.47064E-11   424   0.380E-05
   1 F= -.36204114E+02 E0= -.36204114E+02  d E =-.362041E+02
