 vasp.5.3.5 31Mar14 (build Nov 07 2014 11:36:17) complex                        
  
 executed on             LinuxIFC date 2015.10.15  00:32:36
 running on   20 total cores
 distrk:  each k-point on   20 cores,    1 groups
 distr:  one band on NCORES_PER_BAND=   5 cores,    4 groups


--------------------------------------------------------------------------------------------------------


 INCAR:
 POTCAR:    PAW_PBE Mg_pv 13Apr2007               
 POTCAR:    PAW_PBE S 06Sep2000                   
 POTCAR:    PAW_PBE Mg_pv 13Apr2007               
   VRHFIN =Mg: p6s2                                                             
   LEXCH  = PE                                                                  
   EATOM  =  1056.7344 eV,   77.6678 Ry                                         
                                                                                
   TITEL  = PAW_PBE Mg_pv 13Apr2007                                             
   LULTRA =        F    use ultrasoft PP ?                                      
   IUNSCR =        1    unscreen: 0-lin 1-nonlin 2-no                           
   RPACOR =    1.500    partial core radius                                     
   POMASS =   24.305; ZVAL   =    8.000    mass and valenz                      
   RCORE  =    2.000    outmost cutoff radius                                   
   RWIGS  =    2.000; RWIGS  =    1.058    wigner-seitz radius (au A)           
   ENMAX  =  403.929; ENMIN  =  302.947 eV                                      
   RCLOC  =    1.506    cutoff for local pot                                    
   LCOR   =        T    correct aug charges                                     
   LPAW   =        T    paw PP                                                  
   EAUG   =  758.780                                                            
   DEXC   =    0.000                                                            
   RMAX   =    2.045    core radius for proj-oper                               
   RAUG   =    1.300    factor for augmentation sphere                          
   RDEP   =    2.025    radius for radial grids                                 
   RDEPT  =    1.557    core radius for aug-charge                              
                                                                                
   Atomic configuration                                                         
    5 entries                                                                   
     n  l   j            E        occ.                                          
     1  0  0.50     -1259.6230   2.0000                                         
     2  0  0.50       -79.8442   2.0000                                         
     2  1  1.50       -46.6121   6.0000                                         
     3  0  0.50        -4.7055   2.0000                                         
     3  2  1.50        -1.3606   0.0000                                         
   Description                                                                  
     l       E           TYP  RCUT    TYP  RCUT                                 
     1    -46.6121073     23  1.600                                             
     1      2.7211652     23  1.600                                             
     0     -4.7054661     23  2.000                                             
     0     61.2262170     23  2.000                                             
     2     -1.3605826     23  2.000                                             
  local pseudopotential read in
  partial core-charges read in
  partial kinetic energy density read in
  atomic valenz-charges read in
  non local Contribution for L=           1  read in
    real space projection operators read in
  non local Contribution for L=           1  read in
    real space projection operators read in
  non local Contribution for L=           0  read in
    real space projection operators read in
  non local Contribution for L=           0  read in
    real space projection operators read in
  non local Contribution for L=           2  read in
    real space projection operators read in
    PAW grid and wavefunctions read in
 
   number of l-projection  operators is LMAX  =           5
   number of lm-projection operators is LMMAX =          13
 
 POTCAR:    PAW_PBE S 06Sep2000                   
   VRHFIN =S : s2p4                                                             
   LEXCH  = PE                                                                  
   EATOM  =   276.8230 eV,   20.3459 Ry                                         
                                                                                
   TITEL  = PAW_PBE S 06Sep2000                                                 
   LULTRA =        F    use ultrasoft PP ?                                      
   IUNSCR =        1    unscreen: 0-lin 1-nonlin 2-no                           
   RPACOR =    1.500    partial core radius                                     
   POMASS =   32.066; ZVAL   =    6.000    mass and valenz                      
   RCORE  =    1.900    outmost cutoff radius                                   
   RWIGS  =    2.200; RWIGS  =    1.164    wigner-seitz radius (au A)           
   ENMAX  =  258.689; ENMIN  =  194.016 eV                                      
   ICORE  =        2    local potential                                         
   LCOR   =        T    correct aug charges                                     
   LPAW   =        T    paw PP                                                  
   EAUG   =  335.092                                                            
   DEXC   =    0.000                                                            
   RMAX   =    1.942    core radius for proj-oper                               
   RAUG   =    1.300    factor for augmentation sphere                          
   RDEP   =    1.954    radius for radial grids                                 
   RDEPT  =    1.744    core radius for aug-charge                              
                                                                                
   Atomic configuration                                                         
    6 entries                                                                   
     n  l   j            E        occ.                                          
     1  0  0.50     -2405.8406   2.0000                                         
     2  0  0.50      -211.7007   2.0000                                         
     2  1  1.50      -156.4958   6.0000                                         
     3  0  0.50       -17.2562   2.0000                                         
     3  1  0.50        -7.0085   4.0000                                         
     3  2  1.50        -6.8029   0.0000                                         
   Description                                                                  
     l       E           TYP  RCUT    TYP  RCUT                                 
     0    -17.2561641     23  1.900                                             
     0    -15.8743224     23  1.900                                             
     1     -7.0085400     23  1.900                                             
     1     -2.7779785     23  1.900                                             
     2     -6.8029130     23  1.900                                             
  local pseudopotential read in
  partial core-charges read in
  partial kinetic energy density read in
  atomic valenz-charges read in
  non local Contribution for L=           0  read in
    real space projection operators read in
  non local Contribution for L=           0  read in
    real space projection operators read in
  non local Contribution for L=           1  read in
    real space projection operators read in
  non local Contribution for L=           1  read in
    real space projection operators read in
    PAW grid and wavefunctions read in
 
   number of l-projection  operators is LMAX  =           4
   number of lm-projection operators is LMMAX =           8
 

 ----------------------------------------------------------------------------- 
|                                                                             |
|  ADVICE TO THIS USER RUNNING 'VASP/VAMP'   (HEAR YOUR MASTER'S VOICE ...):  |
|                                                                             |
|      You enforced a specific xc-type in the INCAR file,                     |
|      a different type was found on the POTCAR file                          |
|          I HOPE YOU KNOW, WHAT YOU ARE  DOING                               |
|                                                                             |
 ----------------------------------------------------------------------------- 

  PAW_PBE Mg_pv 13Apr2007               :
 energy of atom  1       EATOM=-1056.7344
 kinetic energy error for atom=    0.0336 (will be added to EATOM!!)
  PAW_PBE S 06Sep2000                   :
 energy of atom  2       EATOM= -276.8230
 kinetic energy error for atom=    0.0015 (will be added to EATOM!!)
 
 
 POSCAR:  Mg S                                   
  positions in direct lattice
  No initial velocities read in
 exchange correlation table for  LEXCH =       14
   RHO(1)=    0.500       N(1)  =     2000
   RHO(2)=  100.500       N(2)  =     4000
 


--------------------------------------------------------------------------------------------------------


 ion  position               nearest neighbor table
   1  0.000  0.000  0.000-   5 2.59   7 2.59   8 2.59   7 2.59   8 2.59   5 2.59
   2  0.000  0.500  0.500-   6 2.59   7 2.59   8 2.59   8 2.59   7 2.59   6 2.59
   3  0.500  0.000  0.500-   5 2.59   6 2.59   7 2.59   5 2.59   6 2.59   7 2.59
   4  0.500  0.500  0.000-   5 2.59   6 2.59   8 2.59   6 2.59   5 2.59   8 2.59
   5  0.500  0.000  0.000-   1 2.59   3 2.59   4 2.59   3 2.59   4 2.59   1 2.59
   6  0.500  0.500  0.500-   2 2.59   3 2.59   4 2.59   4 2.59   3 2.59   2 2.59
   7  0.000  0.000  0.500-   1 2.59   2 2.59   3 2.59   1 2.59   2 2.59   3 2.59
   8  0.000  0.500  0.000-   1 2.59   2 2.59   4 2.59   2 2.59   1 2.59   4 2.59
 
  LATTYP: Found a simple cubic cell.
 ALAT       =     5.1817512900
  
  Lattice vectors:
  
 A1 = (   5.1817512900,   0.0000000000,   0.0000000000)
 A2 = (   0.0000000000,   5.1817512900,   0.0000000000)
 A3 = (   0.0000000000,   0.0000000000,   5.1817512900)


Analysis of symmetry for initial positions (statically):
=====================================================================
 Subroutine PRICEL returns following result:
 
  LATTYP: Found a face centered cubic cell.
 ALAT       =     5.1817512900
  
  Lattice vectors:
  
 A1 = (   2.5908756450,   2.5908756450,   0.0000000000)
 A2 = (   2.5908756450,   0.0000000000,  -2.5908756450)
 A3 = (   0.0000000000,   2.5908756450,  -2.5908756450)
 
   4 primitive cells build up your supercell.
 

 Routine SETGRP: Setting up the symmetry group for a 
 simple cubic supercell.


 Subroutine GETGRP returns: Found 48 space group operations
 (whereof 48 operations were pure point group operations)
 out of a pool of 48 trial point group operations.


The static configuration has the point symmetry O_h .


Analysis of symmetry for dynamics (positions and initial velocities):
=====================================================================
 Subroutine PRICEL returns following result:
 
  LATTYP: Found a face centered cubic cell.
 ALAT       =     5.1817512900
  
  Lattice vectors:
  
 A1 = (   2.5908756450,   2.5908756450,   0.0000000000)
 A2 = (   2.5908756450,   0.0000000000,  -2.5908756450)
 A3 = (   0.0000000000,   2.5908756450,  -2.5908756450)
 
   4 primitive cells build up your supercell.
 

 Routine SETGRP: Setting up the symmetry group for a 
 simple cubic supercell.


 Subroutine GETGRP returns: Found 48 space group operations
 (whereof 48 operations were pure point group operations)
 out of a pool of 48 trial point group operations.


The dynamic configuration has the point symmetry O_h .
 
 
 KPOINTS: Automatic mesh                          

Automatic generation of k-mesh.
Space group operators:
 irot       det(A)        alpha          n_x          n_y          n_z        tau_x        tau_y        tau_z
    1     1.000000     0.000000     1.000000     0.000000     0.000000     0.000000     0.000000     0.000000
    2    -1.000000     0.000000     1.000000     0.000000     0.000000     0.000000     0.000000     0.000000
    3     1.000000   120.000000    -0.577350    -0.577350    -0.577350     0.000000     0.000000     0.000000
    4    -1.000000   120.000000    -0.577350    -0.577350    -0.577350     0.000000     0.000000     0.000000
    5     1.000000   120.000000     0.577350     0.577350     0.577350     0.000000     0.000000     0.000000
    6    -1.000000   120.000000     0.577350     0.577350     0.577350     0.000000     0.000000     0.000000
    7     1.000000    90.000000     0.000000     0.000000    -1.000000     0.000000     0.000000     0.000000
    8    -1.000000    90.000000     0.000000     0.000000    -1.000000     0.000000     0.000000     0.000000
    9     1.000000   180.000000     0.000000     0.707107     0.707107     0.000000     0.000000     0.000000
   10    -1.000000   180.000000     0.000000     0.707107     0.707107     0.000000     0.000000     0.000000
   11     1.000000    90.000000     0.000000     1.000000     0.000000     0.000000     0.000000     0.000000
   12    -1.000000    90.000000     0.000000     1.000000     0.000000     0.000000     0.000000     0.000000
   13     1.000000   180.000000     0.000000     0.000000     1.000000     0.000000     0.000000     0.000000
   14    -1.000000   180.000000     0.000000     0.000000     1.000000     0.000000     0.000000     0.000000
   15     1.000000   120.000000    -0.577350     0.577350     0.577350     0.000000     0.000000     0.000000
   16    -1.000000   120.000000    -0.577350     0.577350     0.577350     0.000000     0.000000     0.000000
   17     1.000000   120.000000    -0.577350     0.577350    -0.577350     0.000000     0.000000     0.000000
   18    -1.000000   120.000000    -0.577350     0.577350    -0.577350     0.000000     0.000000     0.000000
   19     1.000000    90.000000     0.000000     0.000000     1.000000     0.000000     0.000000     0.000000
   20    -1.000000    90.000000     0.000000     0.000000     1.000000     0.000000     0.000000     0.000000
   21     1.000000    90.000000    -1.000000     0.000000     0.000000     0.000000     0.000000     0.000000
   22    -1.000000    90.000000    -1.000000     0.000000     0.000000     0.000000     0.000000     0.000000
   23     1.000000   180.000000     0.707107     0.000000     0.707107     0.000000     0.000000     0.000000
   24    -1.000000   180.000000     0.707107     0.000000     0.707107     0.000000     0.000000     0.000000
   25     1.000000   120.000000     0.577350    -0.577350     0.577350     0.000000     0.000000     0.000000
   26    -1.000000   120.000000     0.577350    -0.577350     0.577350     0.000000     0.000000     0.000000
   27     1.000000   120.000000    -0.577350    -0.577350     0.577350     0.000000     0.000000     0.000000
   28    -1.000000   120.000000    -0.577350    -0.577350     0.577350     0.000000     0.000000     0.000000
   29     1.000000   180.000000     1.000000     0.000000     0.000000     0.000000     0.000000     0.000000
   30    -1.000000   180.000000     1.000000     0.000000     0.000000     0.000000     0.000000     0.000000
   31     1.000000    90.000000     0.000000    -1.000000     0.000000     0.000000     0.000000     0.000000
   32    -1.000000    90.000000     0.000000    -1.000000     0.000000     0.000000     0.000000     0.000000
   33     1.000000   180.000000     0.707107     0.707107     0.000000     0.000000     0.000000     0.000000
   34    -1.000000   180.000000     0.707107     0.707107     0.000000     0.000000     0.000000     0.000000
   35     1.000000    90.000000     1.000000     0.000000     0.000000     0.000000     0.000000     0.000000
   36    -1.000000    90.000000     1.000000     0.000000     0.000000     0.000000     0.000000     0.000000
   37     1.000000   120.000000     0.577350    -0.577350    -0.577350     0.000000     0.000000     0.000000
   38    -1.000000   120.000000     0.577350    -0.577350    -0.577350     0.000000     0.000000     0.000000
   39     1.000000   180.000000     0.000000     1.000000     0.000000     0.000000     0.000000     0.000000
   40    -1.000000   180.000000     0.000000     1.000000     0.000000     0.000000     0.000000     0.000000
   41     1.000000   120.000000     0.577350     0.577350    -0.577350     0.000000     0.000000     0.000000
   42    -1.000000   120.000000     0.577350     0.577350    -0.577350     0.000000     0.000000     0.000000
   43     1.000000   180.000000     0.000000    -0.707107     0.707107     0.000000     0.000000     0.000000
   44    -1.000000   180.000000     0.000000    -0.707107     0.707107     0.000000     0.000000     0.000000
   45     1.000000   180.000000     0.707107    -0.707107     0.000000     0.000000     0.000000     0.000000
   46    -1.000000   180.000000     0.707107    -0.707107     0.000000     0.000000     0.000000     0.000000
   47     1.000000   180.000000     0.707107     0.000000    -0.707107     0.000000     0.000000     0.000000
   48    -1.000000   180.000000     0.707107     0.000000    -0.707107     0.000000     0.000000     0.000000
 
 Subroutine IBZKPT returns following result:
 ===========================================
 
 Found     10 irreducible k-points:
 
 Following reciprocal coordinates:
            Coordinates               Weight
  0.000000  0.000000  0.000000      1.000000
  0.250000  0.000000  0.000000      6.000000
  0.500000  0.000000  0.000000      3.000000
  0.250000  0.250000  0.000000     12.000000
  0.500000  0.250000  0.000000     12.000000
  0.500000  0.500000  0.000000      3.000000
  0.250000  0.250000  0.250000      8.000000
  0.500000  0.250000  0.250000     12.000000
  0.500000  0.500000  0.250000      6.000000
  0.500000  0.500000  0.500000      1.000000
 
 Following cartesian coordinates:
            Coordinates               Weight
  0.000000  0.000000  0.000000      1.000000
  0.048246  0.000000  0.000000      6.000000
  0.096492  0.000000  0.000000      3.000000
  0.048246  0.048246  0.000000     12.000000
  0.096492  0.048246  0.000000     12.000000
  0.096492  0.096492  0.000000      3.000000
  0.048246  0.048246  0.048246      8.000000
  0.096492  0.048246  0.048246     12.000000
  0.096492  0.096492  0.048246      6.000000
  0.096492  0.096492  0.096492      1.000000
 


--------------------------------------------------------------------------------------------------------




 Dimension of arrays:
   k-points           NKPTS =     10   k-points in BZ     NKDIM =     10   number of bands    NBANDS=     36
   number of dos      NEDOS =    301   number of ions     NIONS =      8
   non local maximal  LDIM  =      5   non local SUM 2l+1 LMDIM =     13
   total plane-waves  NPLWV =  64000
   max r-space proj   IRMAX =      1   max aug-charges    IRDMAX= 116122
   dimension x,y,z NGX =    40 NGY =   40 NGZ =   40
   dimension x,y,z NGXF=    80 NGYF=   80 NGZF=   80
   support grid    NGXF=   160 NGYF=  160 NGZF=  160
   ions per type =               4   4
 NGX,Y,Z   is equivalent  to a cutoff of  12.83, 12.83, 12.83 a.u.
 NGXF,Y,Z  is equivalent  to a cutoff of  25.67, 25.67, 25.67 a.u.


 I would recommend the setting:
   dimension x,y,z NGX =    39 NGY =   39 NGZ =   39
 SYSTEM =  unknown system                          
 POSCAR =   Mg S                                   

 Startparameter for this run:
   NWRITE =      2    write-flag & timer
   PREC   = accura    normal or accurate (medium, high low for compatibility)
   ISTART =      0    job   : 0-new  1-cont  2-samecut
   ICHARG =      2    charge: 1-file 2-atom 10-const
   ISPIN  =      1    spin polarized calculation?
   LNONCOLLINEAR =      F non collinear calculations
   LSORBIT =      F    spin-orbit coupling
   INIWAV =      1    electr: 0-lowe 1-rand  2-diag
   LASPH  =      F    aspherical Exc in radial PAW
   METAGGA=      F    non-selfconsistent MetaGGA calc.

 Electronic Relaxation 1
   ENCUT  =  525.1 eV  38.59 Ry    6.21 a.u.   9.68  9.68  9.68*2*pi/ulx,y,z
   ENINI  =  525.1     initial cutoff
   ENAUG  =  758.8 eV  augmentation charge cutoff
   NELM   =     60;   NELMIN=  5; NELMDL= -5     # of ELM steps 
   EDIFF  = 0.1E-07   stopping-criterion for ELM
   LREAL  =      F    real-space projection
   NLSPLINE    = F    spline interpolate recip. space projectors
   LCOMPAT=      F    compatible to vasp.4.4
   GGA_COMPAT  = T    GGA compatible to vasp.4.4-vasp.4.6
   LMAXPAW     = -100 max onsite density
   LMAXMIX     =    2 max onsite mixed and CHGCAR
   VOSKOWN=      0    Vosko Wilk Nusair interpolation
   ROPT   =    0.00000   0.00000
 Ionic relaxation
   EDIFFG = -.1E-07   stopping-criterion for IOM
   NSW    =     20    number of steps for IOM
   NBLOCK =      1;   KBLOCK =     20    inner block; outer block 
   IBRION =      2    ionic relax: 0-MD 1-quasi-New 2-CG
   NFREE  =      1    steps in history (QN), initial steepest desc. (CG)
   ISIF   =      3    stress and relaxation
   IWAVPR =     11    prediction:  0-non 1-charg 2-wave 3-comb
   ISYM   =      2    0-nonsym 1-usesym 2-fastsym
   LCORR  =      T    Harris-Foulkes like correction to forces

   POTIM  = 0.5000    time-step for ionic-motion
   TEIN   =    0.0    initial temperature
   TEBEG  =    0.0;   TEEND  =   0.0 temperature during run
   SMASS  =  -3.00    Nose mass-parameter (am)
   estimated Nose-frequenzy (Omega)   =  0.10E-29 period in steps =****** mass=  -0.614E-27a.u.
   SCALEE = 1.0000    scale energy and forces
   NPACO  =    256;   APACO  = 16.0  distance and # of slots for P.C.
   PSTRESS=    0.0 pullay stress

  Mass of Ions in am
   POMASS =  24.30 32.07
  Ionic Valenz
   ZVAL   =   8.00  6.00
  Atomic Wigner-Seitz radii
   RWIGS  =  -1.00 -1.00
  virtual crystal weights 
   VCA    =   1.00  1.00
   NELECT =      56.0000    total number of electrons
   NUPDOWN=      -1.0000    fix difference up-down

 DOS related values:
   EMIN   =  10.00;   EMAX   =-10.00  energy-range for DOS
   EFERMI =   0.00
   ISMEAR =     0;   SIGMA  =   0.01  broadening in eV -4-tet -1-fermi 0-gaus

 Electronic relaxation 2 (details)
   IALGO  =     38    algorithm
   LDIAG  =      T    sub-space diagonalisation (order eigenvalues)
   LSUBROT=      F    optimize rotation matrix (better conditioning)
   TURBO    =      0    0=normal 1=particle mesh
   IRESTART =      0    0=no restart 2=restart with 2 vectors
   NREBOOT  =      0    no. of reboots
   NMIN     =      0    reboot dimension
   EREF     =   0.00    reference energy to select bands
   IMIX   =      4    mixing-type and parameters
     AMIX     =   0.40;   BMIX     =  1.00
     AMIX_MAG =   1.60;   BMIX_MAG =  1.00
     AMIN     =   0.10
     WC   =   100.;   INIMIX=   1;  MIXPRE=   1;  MAXMIX= -45

 Intra band minimization:
   WEIMIN = 0.0010     energy-eigenvalue tresh-hold
   EBREAK =  0.69E-11  absolut break condition
   DEPER  =   0.30     relativ break condition  

   TIME   =   0.40     timestep for ELM

  volume/ion in A,a.u.               =      17.39       117.36
  Fermi-wavevector in a.u.,A,eV,Ry     =   1.208725  2.284160 19.878341  1.461017
  Thomas-Fermi vector in A             =   2.344324
 
 Write flags
   LWAVE  =      F    write WAVECAR
   LCHARG =      F    write CHGCAR
   LVTOT  =      F    write LOCPOT, total local potential
   LVHAR  =      F    write LOCPOT, Hartree potential only
   LELF   =      F    write electronic localiz. function (ELF)
   LORBIT =      0    0 simple, 1 ext, 2 COOP (PROOUT)


 Dipole corrections
   LMONO  =      F    monopole corrections only (constant potential shift)
   LDIPOL =      F    correct potential (dipole corrections)
   IDIPOL =      0    1-x, 2-y, 3-z, 4-all directions 
   EPSILON=  1.0000000 bulk dielectric constant

 Exchange correlation treatment:
   GGA     =    PS    GGA type
   LEXCH   =    14    internal setting for exchange type
   VOSKOWN=      0    Vosko Wilk Nusair interpolation
   LHFCALC =     F    Hartree Fock is set to
   LHFONE  =     F    Hartree Fock one center treatment
   AEXX    =    0.0000 exact exchange contribution

 Linear response parameters
   LEPSILON=     F    determine dielectric tensor
   LRPA    =     F    only Hartree local field effects (RPA)
   LNABLA  =     F    use nabla operator in PAW spheres
   LVEL    =     F    velocity operator in full k-point grid
   LINTERFAST=   F  fast interpolation
   KINTER  =     0    interpolate to denser k-point grid
   CSHIFT  =0.1000    complex shift for real part using Kramers Kronig
   OMEGAMAX=  -1.0    maximum frequency
   DEG_THRESHOLD= 0.2000000E-02 threshold for treating states as degnerate
   RTIME   =    0.100 relaxation time in fs

 Orbital magnetization related:
   ORBITALMAG=     F  switch on orbital magnetization
   LCHIMAG   =     F  perturbation theory with respect to B field
   DQ        =  0.001000  dq finite difference perturbation B field



--------------------------------------------------------------------------------------------------------


 conjugate gradient relaxation of ions
 charge density and potential will be updated during run
 non-spin polarized calculation
 Variant of blocked Davidson
 Davidson routine will perform the subspace rotation
 perform sub-space diagonalisation
    after iterative eigenvector-optimisation
 modified Broyden-mixing scheme, WC =      100.0
 initial mixing is a Kerker type mixing with AMIX =  0.4000 and BMIX =      1.0000
 Hartree-type preconditioning will be used
 using additional bands            8
 reciprocal scheme for non local part
 use partial core corrections
 calculate Harris-corrections to forces 
   (improved forces if not selfconsistent)
 use gradient corrections 
 use of overlap-Matrix (Vanderbilt PP)
 Gauss-broadening in eV      SIGMA  =   0.01


--------------------------------------------------------------------------------------------------------


  energy-cutoff  :      525.11
  volume of cell :      139.13
      direct lattice vectors                 reciprocal lattice vectors
     5.181751290  0.000000000  0.000000000     0.192984947  0.000000000  0.000000000
     0.000000000  5.181751290  0.000000000     0.000000000  0.192984947  0.000000000
     0.000000000  0.000000000  5.181751290     0.000000000  0.000000000  0.192984947

  length of vectors
     5.181751290  5.181751290  5.181751290     0.192984947  0.192984947  0.192984947


 
 k-points in units of 2pi/SCALE and weight: Automatic mesh                          
   0.00000000  0.00000000  0.00000000       0.016
   0.04824624  0.00000000  0.00000000       0.094
   0.09649247  0.00000000  0.00000000       0.047
   0.04824624  0.04824624  0.00000000       0.188
   0.09649247  0.04824624  0.00000000       0.188
   0.09649247  0.09649247  0.00000000       0.047
   0.04824624  0.04824624  0.04824624       0.125
   0.09649247  0.04824624  0.04824624       0.188
   0.09649247  0.09649247  0.04824624       0.094
   0.09649247  0.09649247  0.09649247       0.016
 
 k-points in reciprocal lattice and weights: Automatic mesh                          
   0.00000000  0.00000000  0.00000000       0.016
   0.25000000  0.00000000  0.00000000       0.094
   0.50000000  0.00000000  0.00000000       0.047
   0.25000000  0.25000000  0.00000000       0.188
   0.50000000  0.25000000  0.00000000       0.188
   0.50000000  0.50000000  0.00000000       0.047
   0.25000000  0.25000000  0.25000000       0.125
   0.50000000  0.25000000  0.25000000       0.188
   0.50000000  0.50000000  0.25000000       0.094
   0.50000000  0.50000000  0.50000000       0.016
 
 position of ions in fractional coordinates (direct lattice) 
   0.00000000  0.00000000  0.00000000
   0.00000000  0.50000000  0.50000000
   0.50000000  0.00000000  0.50000000
   0.50000000  0.50000000  0.00000000
   0.50000000  0.00000000  0.00000000
   0.50000000  0.50000000  0.50000000
   0.00000000  0.00000000  0.50000000
   0.00000000  0.50000000  0.00000000
 
 position of ions in cartesian coordinates  (Angst):
   0.00000000  0.00000000  0.00000000
   0.00000000  2.59087565  2.59087565
   2.59087565  0.00000000  2.59087565
   2.59087565  2.59087565  0.00000000
   2.59087565  0.00000000  0.00000000
   2.59087565  2.59087565  2.59087565
   0.00000000  0.00000000  2.59087565
   0.00000000  2.59087565  0.00000000
 


--------------------------------------------------------------------------------------------------------


 k-point  1 :   0.0000 0.0000 0.0000  plane waves:    3791
 k-point  2 :   0.2500 0.0000 0.0000  plane waves:    3811
 k-point  3 :   0.5000 0.0000 0.0000  plane waves:    3804
 k-point  4 :   0.2500 0.2500 0.0000  plane waves:    3800
 k-point  5 :   0.5000 0.2500 0.0000  plane waves:    3782
 k-point  6 :   0.5000 0.5000 0.0000  plane waves:    3836
 k-point  7 :   0.2500 0.2500 0.2500  plane waves:    3824
 k-point  8 :   0.5000 0.2500 0.2500  plane waves:    3808
 k-point  9 :   0.5000 0.5000 0.2500  plane waves:    3792
 k-point 10 :   0.5000 0.5000 0.5000  plane waves:    3840

 maximum and minimum number of plane-waves per node :       782      740

 maximum number of plane-waves:      3840
 maximum index in each direction: 
   IXMAX=    9   IYMAX=    9   IZMAX=    9
   IXMIN=  -10   IYMIN=  -10   IZMIN=  -10

 NGX is ok and might be reduce to  40
 NGY is ok and might be reduce to  40
 NGZ is ok and might be reduce to  40

 parallel 3D FFT for wavefunctions:
    minimum data exchange during FFTs selected (reduces bandwidth)
 parallel 3D FFT for charge:
    minimum data exchange during FFTs selected (reduces bandwidth)


 total amount of memory used by VASP on root node    39026. kBytes
========================================================================

   base      :      30000. kBytes
   nonl-proj :       1722. kBytes
   fftplans  :       4155. kBytes
   grid      :       1976. kBytes
   one-center:         16. kBytes
   wavefun   :       1157. kBytes
 
     INWAV:  cpu time    0.00: real time    0.00
 Broyden mixing: mesh for mixing (old mesh)
   NGX = 19   NGY = 19   NGZ = 19
  (NGX  = 80   NGY  = 80   NGZ  = 80)
  gives a total of   6859 points

 initial charge density was supplied:
 charge density of overlapping atoms calculated
 number of electron      56.0000000 magnetization 
 keeping initial charge density in first step


--------------------------------------------------------------------------------------------------------


 Maximum index for augmentation-charges         5931 (set IRDMAX)


--------------------------------------------------------------------------------------------------------


 First call to EWALD:  gamma=   0.342
 Maximum number of real-space cells 3x 3x 3
 Maximum number of reciprocal cells 3x 3x 3

 FEWALD executed in parallel
    FEWALD:  cpu time    0.00: real time    0.00


----------------------------------------- Iteration    1(   1)  ---------------------------------------


    POTLOK:  cpu time    0.02: real time    0.02
    SETDIJ:  cpu time    0.03: real time    0.03
     EDDAV:  cpu time    0.29: real time    0.29
       DOS:  cpu time    0.00: real time    0.00
    --------------------------------------------
      LOOP:  cpu time    0.34: real time    0.35

 eigenvalue-minimisations  :   888
 total energy-change (2. order) : 0.4578769E+03  (-0.3469056E+04)
 number of electron      56.0000000 magnetization 
 augmentation part       56.0000000 magnetization 

 Free energy of the ion-electron system (eV)
  ---------------------------------------------------
  alpha Z        PSCENC =       152.60682222
  Ewald energy   TEWEN  =     -3129.64793988
  -Hartree energ DENC   =     -1164.50494586
  -exchange      EXHF   =         0.00000000
  -V(xc)+E(xc)   XCENC  =       159.38204407
  PAW double counting   =      3462.71711756    -3919.80126840
  entropy T*S    EENTRO =        -0.00070524
  eigenvalues    EBANDS =      -424.57966244
  atomic energy  EATOM  =      5321.70543053
  ---------------------------------------------------
  free energy    TOTEN  =       457.87689257 eV

  energy without entropy =      457.87759780  energy(sigma->0) =      457.87724518


--------------------------------------------------------------------------------------------------------




----------------------------------------- Iteration    1(   2)  ---------------------------------------


     EDDAV:  cpu time    0.26: real time    0.26
       DOS:  cpu time    0.00: real time    0.00
    --------------------------------------------
      LOOP:  cpu time    0.26: real time    0.26

 eigenvalue-minimisations  :   856
 total energy-change (2. order) :-0.4619513E+03  (-0.4494197E+03)
 number of electron      56.0000000 magnetization 
 augmentation part       56.0000000 magnetization 

 Free energy of the ion-electron system (eV)
  ---------------------------------------------------
  alpha Z        PSCENC =       152.60682222
  Ewald energy   TEWEN  =     -3129.64793988
  -Hartree energ DENC   =     -1164.50494586
  -exchange      EXHF   =         0.00000000
  -V(xc)+E(xc)   XCENC  =       159.38204407
  PAW double counting   =      3462.71711756    -3919.80126840
  entropy T*S    EENTRO =         0.00000000
  eigenvalues    EBANDS =      -886.53168847
  atomic energy  EATOM  =      5321.70543053
  ---------------------------------------------------
  free energy    TOTEN  =        -4.07442823 eV

  energy without entropy =       -4.07442823  energy(sigma->0) =       -4.07442823


--------------------------------------------------------------------------------------------------------




----------------------------------------- Iteration    1(   3)  ---------------------------------------


     EDDAV:  cpu time    0.26: real time    0.26
       DOS:  cpu time    0.00: real time    0.00
    --------------------------------------------
      LOOP:  cpu time    0.26: real time    0.26

 eigenvalue-minimisations  :   844
 total energy-change (2. order) :-0.3259459E+02  (-0.3242709E+02)
 number of electron      56.0000000 magnetization 
 augmentation part       56.0000000 magnetization 

 Free energy of the ion-electron system (eV)
  ---------------------------------------------------
  alpha Z        PSCENC =       152.60682222
  Ewald energy   TEWEN  =     -3129.64793988
  -Hartree energ DENC   =     -1164.50494586
  -exchange      EXHF   =         0.00000000
  -V(xc)+E(xc)   XCENC  =       159.38204407
  PAW double counting   =      3462.71711756    -3919.80126840
  entropy T*S    EENTRO =         0.00000000
  eigenvalues    EBANDS =      -919.12628274
  atomic energy  EATOM  =      5321.70543053
  ---------------------------------------------------
  free energy    TOTEN  =       -36.66902250 eV

  energy without entropy =      -36.66902250  energy(sigma->0) =      -36.66902250


--------------------------------------------------------------------------------------------------------




----------------------------------------- Iteration    1(   4)  ---------------------------------------


     EDDAV:  cpu time    0.26: real time    0.26
       DOS:  cpu time    0.00: real time    0.00
    --------------------------------------------
      LOOP:  cpu time    0.26: real time    0.27

 eigenvalue-minimisations  :   868
 total energy-change (2. order) :-0.1013700E+01  (-0.1011486E+01)
 number of electron      56.0000000 magnetization 
 augmentation part       56.0000000 magnetization 

 Free energy of the ion-electron system (eV)
  ---------------------------------------------------
  alpha Z        PSCENC =       152.60682222
  Ewald energy   TEWEN  =     -3129.64793988
  -Hartree energ DENC   =     -1164.50494586
  -exchange      EXHF   =         0.00000000
  -V(xc)+E(xc)   XCENC  =       159.38204407
  PAW double counting   =      3462.71711756    -3919.80126840
  entropy T*S    EENTRO =         0.00000000
  eigenvalues    EBANDS =      -920.13998303
  atomic energy  EATOM  =      5321.70543053
  ---------------------------------------------------
  free energy    TOTEN  =       -37.68272279 eV

  energy without entropy =      -37.68272279  energy(sigma->0) =      -37.68272279


--------------------------------------------------------------------------------------------------------




----------------------------------------- Iteration    1(   5)  ---------------------------------------


     EDDAV:  cpu time    0.27: real time    0.27
       DOS:  cpu time    0.00: real time    0.00
    CHARGE:  cpu time    0.06: real time    0.06
    MIXING:  cpu time    0.00: real time    0.00
    --------------------------------------------
      LOOP:  cpu time    0.33: real time    0.33

 eigenvalue-minimisations  :   892
 total energy-change (2. order) :-0.2865249E-01  (-0.2864278E-01)
 number of electron      56.0000000 magnetization 
 augmentation part       13.1795332 magnetization 

 Broyden mixing:
  rms(total) = 0.85541E+00    rms(broyden)= 0.85535E+00
  rms(prec ) = 0.14214E+01
  weight for this iteration     100.00

 Free energy of the ion-electron system (eV)
  ---------------------------------------------------
  alpha Z        PSCENC =       152.60682222
  Ewald energy   TEWEN  =     -3129.64793988
  -Hartree energ DENC   =     -1164.50494586
  -exchange      EXHF   =         0.00000000
  -V(xc)+E(xc)   XCENC  =       159.38204407
  PAW double counting   =      3462.71711756    -3919.80126840
  entropy T*S    EENTRO =         0.00000000
  eigenvalues    EBANDS =      -920.16863552
  atomic energy  EATOM  =      5321.70543053
  ---------------------------------------------------
  free energy    TOTEN  =       -37.71137527 eV

  energy without entropy =      -37.71137527  energy(sigma->0) =      -37.71137527


--------------------------------------------------------------------------------------------------------




----------------------------------------- Iteration    1(   6)  ---------------------------------------


    POTLOK:  cpu time    0.01: real time    0.02
    SETDIJ:  cpu time    0.03: real time    0.03
     EDDAV:  cpu time    0.24: real time    0.24
       DOS:  cpu time    0.00: real time    0.00
    CHARGE:  cpu time    0.06: real time    0.06
    MIXING:  cpu time    0.00: real time    0.00
    --------------------------------------------
      LOOP:  cpu time    0.35: real time    0.35

 eigenvalue-minimisations  :   768
 total energy-change (2. order) : 0.1316382E+01  (-0.2597892E+00)
 number of electron      56.0000000 magnetization 
 augmentation part       13.3382916 magnetization 

 Broyden mixing:
  rms(total) = 0.63167E+00    rms(broyden)= 0.63167E+00
  rms(prec ) = 0.77793E+00
  weight for this iteration     100.00

 eigenvalues of (default mixing * dielectric matrix)
  average eigenvalue GAMMA=   2.0194
  2.0194

 Free energy of the ion-electron system (eV)
  ---------------------------------------------------
  alpha Z        PSCENC =       152.60682222
  Ewald energy   TEWEN  =     -3129.64793988
  -Hartree energ DENC   =     -1162.98867042
  -exchange      EXHF   =         0.00000000
  -V(xc)+E(xc)   XCENC  =       160.47700931
  PAW double counting   =      3737.08944622    -4190.57670238
  entropy T*S    EENTRO =         0.00000000
  eigenvalues    EBANDS =      -925.06038892
  atomic energy  EATOM  =      5321.70543053
  ---------------------------------------------------
  free energy    TOTEN  =       -36.39499332 eV

  energy without entropy =      -36.39499332  energy(sigma->0) =      -36.39499332


--------------------------------------------------------------------------------------------------------




----------------------------------------- Iteration    1(   7)  ---------------------------------------


    POTLOK:  cpu time    0.02: real time    0.02
    SETDIJ:  cpu time    0.03: real time    0.03
     EDDAV:  cpu time    0.27: real time    0.27
       DOS:  cpu time    0.00: real time    0.00
    CHARGE:  cpu time    0.06: real time    0.06
    MIXING:  cpu time    0.00: real time    0.00
    --------------------------------------------
      LOOP:  cpu time    0.38: real time    0.38

 eigenvalue-minimisations  :   904
 total energy-change (2. order) : 0.1590440E+00  (-0.7654321E-01)
 number of electron      56.0000000 magnetization 
 augmentation part       13.4249414 magnetization 

 Broyden mixing:
  rms(total) = 0.35773E+00    rms(broyden)= 0.35773E+00
  rms(prec ) = 0.38453E+00
  weight for this iteration     100.00

 eigenvalues of (default mixing * dielectric matrix)
  average eigenvalue GAMMA=   2.2431
  1.4449  3.0413

 Free energy of the ion-electron system (eV)
  ---------------------------------------------------
  alpha Z        PSCENC =       152.60682222
  Ewald energy   TEWEN  =     -3129.64793988
  -Hartree energ DENC   =     -1159.72635568
  -exchange      EXHF   =         0.00000000
  -V(xc)+E(xc)   XCENC  =       161.22638018
  PAW double counting   =      4230.32704380    -4682.49294087
  entropy T*S    EENTRO =         0.00000000
  eigenvalues    EBANDS =      -930.23438962
  atomic energy  EATOM  =      5321.70543053
  ---------------------------------------------------
  free energy    TOTEN  =       -36.23594932 eV

  energy without entropy =      -36.23594932  energy(sigma->0) =      -36.23594932


--------------------------------------------------------------------------------------------------------




----------------------------------------- Iteration    1(   8)  ---------------------------------------


    POTLOK:  cpu time    0.02: real time    0.02
    SETDIJ:  cpu time    0.03: real time    0.03
     EDDAV:  cpu time    0.24: real time    0.24
       DOS:  cpu time    0.00: real time    0.00
    CHARGE:  cpu time    0.06: real time    0.06
    MIXING:  cpu time    0.00: real time    0.00
    --------------------------------------------
      LOOP:  cpu time    0.35: real time    0.35

 eigenvalue-minimisations  :   788
 total energy-change (2. order) : 0.6661954E-02  (-0.4956274E-02)
 number of electron      56.0000000 magnetization 
 augmentation part       13.4068786 magnetization 

 Broyden mixing:
  rms(total) = 0.10211E+00    rms(broyden)= 0.10211E+00
  rms(prec ) = 0.10575E+00
  weight for this iteration     100.00

 eigenvalues of (default mixing * dielectric matrix)
  average eigenvalue GAMMA=   1.5931
  2.4913  0.8893  1.3988

 Free energy of the ion-electron system (eV)
  ---------------------------------------------------
  alpha Z        PSCENC =       152.60682222
  Ewald energy   TEWEN  =     -3129.64793988
  -Hartree energ DENC   =     -1155.18465095
  -exchange      EXHF   =         0.00000000
  -V(xc)+E(xc)   XCENC  =       161.42620270
  PAW double counting   =      4829.91424061    -5283.02971363
  entropy T*S    EENTRO =         0.00000000
  eigenvalues    EBANDS =      -934.01967897
  atomic energy  EATOM  =      5321.70543053
  ---------------------------------------------------
  free energy    TOTEN  =       -36.22928736 eV

  energy without entropy =      -36.22928736  energy(sigma->0) =      -36.22928736


--------------------------------------------------------------------------------------------------------




----------------------------------------- Iteration    1(   9)  ---------------------------------------


    POTLOK:  cpu time    0.02: real time    0.02
    SETDIJ:  cpu time    0.03: real time    0.03
     EDDAV:  cpu time    0.26: real time    0.26
       DOS:  cpu time    0.00: real time    0.00
    CHARGE:  cpu time    0.06: real time    0.06
    MIXING:  cpu time    0.00: real time    0.00
    --------------------------------------------
      LOOP:  cpu time    0.37: real time    0.37

 eigenvalue-minimisations  :   876
 total energy-change (2. order) : 0.8081641E-03  (-0.2466038E-03)
 number of electron      56.0000000 magnetization 
 augmentation part       13.4106303 magnetization 

 Broyden mixing:
  rms(total) = 0.28171E-01    rms(broyden)= 0.28171E-01
  rms(prec ) = 0.29286E-01
  weight for this iteration     100.00

 eigenvalues of (default mixing * dielectric matrix)
  average eigenvalue GAMMA=   1.8184
  2.6167  2.1771  1.1323  1.3476

 Free energy of the ion-electron system (eV)
  ---------------------------------------------------
  alpha Z        PSCENC =       152.60682222
  Ewald energy   TEWEN  =     -3129.64793988
  -Hartree energ DENC   =     -1155.73175878
  -exchange      EXHF   =         0.00000000
  -V(xc)+E(xc)   XCENC  =       161.40565481
  PAW double counting   =      4720.63663796    -5173.57559513
  entropy T*S    EENTRO =         0.00000000
  eigenvalues    EBANDS =      -933.62773093
  atomic energy  EATOM  =      5321.70543053
  ---------------------------------------------------
  free energy    TOTEN  =       -36.22847920 eV

  energy without entropy =      -36.22847920  energy(sigma->0) =      -36.22847920


--------------------------------------------------------------------------------------------------------




----------------------------------------- Iteration    1(  10)  ---------------------------------------


    POTLOK:  cpu time    0.02: real time    0.02
    SETDIJ:  cpu time    0.03: real time    0.03
     EDDAV:  cpu time    0.27: real time    0.27
       DOS:  cpu time    0.00: real time    0.00
    CHARGE:  cpu time    0.06: real time    0.06
    MIXING:  cpu time    0.00: real time    0.00
    --------------------------------------------
      LOOP:  cpu time    0.38: real time    0.38

 eigenvalue-minimisations  :   892
 total energy-change (2. order) :-0.2862037E-04  (-0.5515814E-04)
 number of electron      56.0000000 magnetization 
 augmentation part       13.4130488 magnetization 

 Broyden mixing:
  rms(total) = 0.16080E-02    rms(broyden)= 0.16079E-02
  rms(prec ) = 0.30568E-02
  weight for this iteration     100.00

 eigenvalues of (default mixing * dielectric matrix)
  average eigenvalue GAMMA=   1.6929
  2.7170  2.4884  1.3253  1.0552  0.8787

 Free energy of the ion-electron system (eV)
  ---------------------------------------------------
  alpha Z        PSCENC =       152.60682222
  Ewald energy   TEWEN  =     -3129.64793988
  -Hartree energ DENC   =     -1155.49041389
  -exchange      EXHF   =         0.00000000
  -V(xc)+E(xc)   XCENC  =       161.40611895
  PAW double counting   =      4679.36431343    -5132.31120344
  entropy T*S    EENTRO =         0.00000000
  eigenvalues    EBANDS =      -933.86163575
  atomic energy  EATOM  =      5321.70543053
  ---------------------------------------------------
  free energy    TOTEN  =       -36.22850782 eV

  energy without entropy =      -36.22850782  energy(sigma->0) =      -36.22850782


--------------------------------------------------------------------------------------------------------




----------------------------------------- Iteration    1(  11)  ---------------------------------------


    POTLOK:  cpu time    0.02: real time    0.02
    SETDIJ:  cpu time    0.03: real time    0.03
     EDDAV:  cpu time    0.26: real time    0.26
       DOS:  cpu time    0.00: real time    0.00
    CHARGE:  cpu time    0.06: real time    0.06
    MIXING:  cpu time    0.00: real time    0.00
    --------------------------------------------
      LOOP:  cpu time    0.37: real time    0.37

 eigenvalue-minimisations  :   820
 total energy-change (2. order) : 0.4277809E-05  (-0.2782652E-05)
 number of electron      56.0000000 magnetization 
 augmentation part       13.4126387 magnetization 

 Broyden mixing:
  rms(total) = 0.20521E-02    rms(broyden)= 0.20521E-02
  rms(prec ) = 0.21489E-02
  weight for this iteration     100.00

 eigenvalues of (default mixing * dielectric matrix)
  average eigenvalue GAMMA=   1.6674
  2.7324  2.4468  1.4401  0.9949  1.1951  1.1951

 Free energy of the ion-electron system (eV)
  ---------------------------------------------------
  alpha Z        PSCENC =       152.60682222
  Ewald energy   TEWEN  =     -3129.64793988
  -Hartree energ DENC   =     -1155.44097791
  -exchange      EXHF   =         0.00000000
  -V(xc)+E(xc)   XCENC  =       161.40279647
  PAW double counting   =      4674.93220984    -5127.90489995
  entropy T*S    EENTRO =         0.00000000
  eigenvalues    EBANDS =      -933.88194487
  atomic energy  EATOM  =      5321.70543053
  ---------------------------------------------------
  free energy    TOTEN  =       -36.22850354 eV

  energy without entropy =      -36.22850354  energy(sigma->0) =      -36.22850354


--------------------------------------------------------------------------------------------------------




----------------------------------------- Iteration    1(  12)  ---------------------------------------


    POTLOK:  cpu time    0.02: real time    0.02
    SETDIJ:  cpu time    0.03: real time    0.03
     EDDAV:  cpu time    0.27: real time    0.27
       DOS:  cpu time    0.00: real time    0.00
    CHARGE:  cpu time    0.06: real time    0.06
    MIXING:  cpu time    0.00: real time    0.00
    --------------------------------------------
      LOOP:  cpu time    0.38: real time    0.38

 eigenvalue-minimisations  :   888
 total energy-change (2. order) : 0.6282762E-06  (-0.1779772E-06)
 number of electron      56.0000000 magnetization 
 augmentation part       13.4124843 magnetization 

 Broyden mixing:
  rms(total) = 0.23090E-03    rms(broyden)= 0.23090E-03
  rms(prec ) = 0.29993E-03
  weight for this iteration     100.00

 eigenvalues of (default mixing * dielectric matrix)
  average eigenvalue GAMMA=   1.7124
  2.8092  2.5896  2.2907  1.2168  1.2168  0.9407  0.9233

 Free energy of the ion-electron system (eV)
  ---------------------------------------------------
  alpha Z        PSCENC =       152.60682222
  Ewald energy   TEWEN  =     -3129.64793988
  -Hartree energ DENC   =     -1155.44693716
  -exchange      EXHF   =         0.00000000
  -V(xc)+E(xc)   XCENC  =       161.40327002
  PAW double counting   =      4677.15453250    -5130.13280453
  entropy T*S    EENTRO =         0.00000000
  eigenvalues    EBANDS =      -933.87087662
  atomic energy  EATOM  =      5321.70543053
  ---------------------------------------------------
  free energy    TOTEN  =       -36.22850292 eV

  energy without entropy =      -36.22850292  energy(sigma->0) =      -36.22850292


--------------------------------------------------------------------------------------------------------




----------------------------------------- Iteration    1(  13)  ---------------------------------------


    POTLOK:  cpu time    0.02: real time    0.02
    SETDIJ:  cpu time    0.03: real time    0.03
     EDDAV:  cpu time    0.27: real time    0.27
       DOS:  cpu time    0.00: real time    0.00
    CHARGE:  cpu time    0.06: real time    0.06
    MIXING:  cpu time    0.00: real time    0.00
    --------------------------------------------
      LOOP:  cpu time    0.37: real time    0.38

 eigenvalue-minimisations  :   864
 total energy-change (2. order) : 0.4941830E-07  (-0.1580692E-07)
 number of electron      56.0000000 magnetization 
 augmentation part       13.4124399 magnetization 

 Broyden mixing:
  rms(total) = 0.11968E-03    rms(broyden)= 0.11968E-03
  rms(prec ) = 0.12212E-03
  weight for this iteration     100.00

 eigenvalues of (default mixing * dielectric matrix)
  average eigenvalue GAMMA=   1.6999
  3.0349  2.6344  2.4251  1.3770  1.1559  1.1559  0.9990  0.8172

 Free energy of the ion-electron system (eV)
  ---------------------------------------------------
  alpha Z        PSCENC =       152.60682222
  Ewald energy   TEWEN  =     -3129.64793988
  -Hartree energ DENC   =     -1155.45037073
  -exchange      EXHF   =         0.00000000
  -V(xc)+E(xc)   XCENC  =       161.40318822
  PAW double counting   =      4677.42062176    -5130.40084620
  entropy T*S    EENTRO =         0.00000000
  eigenvalues    EBANDS =      -933.86540878
  atomic energy  EATOM  =      5321.70543053
  ---------------------------------------------------
  free energy    TOTEN  =       -36.22850287 eV

  energy without entropy =      -36.22850287  energy(sigma->0) =      -36.22850287


--------------------------------------------------------------------------------------------------------




----------------------------------------- Iteration    1(  14)  ---------------------------------------


    POTLOK:  cpu time    0.02: real time    0.02
    SETDIJ:  cpu time    0.03: real time    0.03
     EDDAV:  cpu time    0.25: real time    0.25
       DOS:  cpu time    0.00: real time    0.00
    CHARGE:  cpu time    0.06: real time    0.06
    MIXING:  cpu time    0.00: real time    0.00
    --------------------------------------------
      LOOP:  cpu time    0.36: real time    0.36

 eigenvalue-minimisations  :   784
 total energy-change (2. order) : 0.4422509E-07  (-0.1334589E-08)
 number of electron      56.0000000 magnetization 
 augmentation part       13.4124294 magnetization 

 Broyden mixing:
  rms(total) = 0.15961E-03    rms(broyden)= 0.15961E-03
  rms(prec ) = 0.16551E-03
  weight for this iteration     100.00

 eigenvalues of (default mixing * dielectric matrix)
  average eigenvalue GAMMA=   1.7398
  2.7976  2.7976  2.5006  2.1143  1.2583  1.2583  1.0435  1.0091  0.8795

 Free energy of the ion-electron system (eV)
  ---------------------------------------------------
  alpha Z        PSCENC =       152.60682222
  Ewald energy   TEWEN  =     -3129.64793988
  -Hartree energ DENC   =     -1155.45073418
  -exchange      EXHF   =         0.00000000
  -V(xc)+E(xc)   XCENC  =       161.40315822
  PAW double counting   =      4677.45007488    -5130.43025801
  entropy T*S    EENTRO =         0.00000000
  eigenvalues    EBANDS =      -933.86505660
  atomic energy  EATOM  =      5321.70543053
  ---------------------------------------------------
  free energy    TOTEN  =       -36.22850282 eV

  energy without entropy =      -36.22850282  energy(sigma->0) =      -36.22850282


--------------------------------------------------------------------------------------------------------




----------------------------------------- Iteration    1(  15)  ---------------------------------------


    POTLOK:  cpu time    0.02: real time    0.02
    SETDIJ:  cpu time    0.03: real time    0.03
     EDDAV:  cpu time    0.23: real time    0.23
       DOS:  cpu time    0.00: real time    0.00
    CHARGE:  cpu time    0.06: real time    0.06
    MIXING:  cpu time    0.00: real time    0.00
    --------------------------------------------
      LOOP:  cpu time    0.34: real time    0.34

 eigenvalue-minimisations  :   708
 total energy-change (2. order) :-0.3653440E-07  (-0.1093737E-08)
 number of electron      56.0000000 magnetization 
 augmentation part       13.4124420 magnetization 

 Broyden mixing:
  rms(total) = 0.56673E-05    rms(broyden)= 0.56668E-05
  rms(prec ) = 0.59754E-05
  weight for this iteration     100.00

 eigenvalues of (default mixing * dielectric matrix)
  average eigenvalue GAMMA=   1.7012
  2.9250  2.6227  2.6227  2.1047  1.3246  1.2454  1.2454  1.0124  1.0124  0.8964

 Free energy of the ion-electron system (eV)
  ---------------------------------------------------
  alpha Z        PSCENC =       152.60682222
  Ewald energy   TEWEN  =     -3129.64793988
  -Hartree energ DENC   =     -1155.45133056
  -exchange      EXHF   =         0.00000000
  -V(xc)+E(xc)   XCENC  =       161.40316368
  PAW double counting   =      4677.24781731    -5130.22740859
  entropy T*S    EENTRO =         0.00000000
  eigenvalues    EBANDS =      -933.86505758
  atomic energy  EATOM  =      5321.70543053
  ---------------------------------------------------
  free energy    TOTEN  =       -36.22850286 eV

  energy without entropy =      -36.22850286  energy(sigma->0) =      -36.22850286


--------------------------------------------------------------------------------------------------------




----------------------------------------- Iteration    1(  16)  ---------------------------------------


    POTLOK:  cpu time    0.01: real time    0.02
    SETDIJ:  cpu time    0.03: real time    0.03
     EDDAV:  cpu time    0.17: real time    0.17
       DOS:  cpu time    0.00: real time    0.00
    --------------------------------------------
      LOOP:  cpu time    0.21: real time    0.22

 eigenvalue-minimisations  :   432
 total energy-change (2. order) : 0.2301022E-08  (-0.1730929E-10)
 number of electron      56.0000000 magnetization 
 augmentation part       13.4124420 magnetization 

 Free energy of the ion-electron system (eV)
  ---------------------------------------------------
  alpha Z        PSCENC =       152.60682222
  Ewald energy   TEWEN  =     -3129.64793988
  -Hartree energ DENC   =     -1155.45136332
  -exchange      EXHF   =         0.00000000
  -V(xc)+E(xc)   XCENC  =       161.40316951
  PAW double counting   =      4677.25865438    -5130.23829195
  entropy T*S    EENTRO =         0.00000000
  eigenvalues    EBANDS =      -933.86498435
  atomic energy  EATOM  =      5321.70543053
  ---------------------------------------------------
  free energy    TOTEN  =       -36.22850286 eV

  energy without entropy =      -36.22850286  energy(sigma->0) =      -36.22850286


--------------------------------------------------------------------------------------------------------




 average (electrostatic) potential at core
  the test charge radii are     0.8294  0.9698
  (the norm of the test charge is              1.0000)
       1 -42.5957       2 -42.5957       3 -42.5957       4 -42.5957       5 -86.3095
       6 -86.3095       7 -86.3095       8 -86.3095
 
 
 
 E-fermi :   3.6846     XC(G=0): -10.0681     alpha+bet :-10.5972


 k-point     1 :       0.0000    0.0000    0.0000
  band No.  band energies     occupation 
      1     -37.6473      2.00000
      2     -37.6473      2.00000
      3     -37.6473      2.00000
      4     -37.6434      2.00000
      5     -37.6434      2.00000
      6     -37.6434      2.00000
      7     -37.6434      2.00000
      8     -37.6434      2.00000
      9     -37.6434      2.00000
     10     -37.6405      2.00000
     11     -37.6405      2.00000
     12     -37.6405      2.00000
     13      -9.1745      2.00000
     14      -7.4272      2.00000
     15      -7.4272      2.00000
     16      -7.4272      2.00000
     17      -0.7334      2.00000
     18      -0.7334      2.00000
     19      -0.7334      2.00000
     20       1.8509      2.00000
     21       1.8509      2.00000
     22       1.8509      2.00000
     23       1.8509      2.00000
     24       1.8509      2.00000
     25       1.8509      2.00000
     26       3.5838      2.00000
     27       3.5838      2.00000
     28       3.5838      2.00000
     29       6.3181      0.00000
     30       6.3181      0.00000
     31       6.3181      0.00000
     32       7.2762      0.00000
     33       7.7863      0.00000
     34       7.7863      0.00000
     35       7.7863      0.00000
     36      11.4275      0.00000

 k-point     2 :       0.2500    0.0000    0.0000
  band No.  band energies     occupation 
      1     -37.6467      2.00000
      2     -37.6467      2.00000
      3     -37.6464      2.00000
      4     -37.6440      2.00000
      5     -37.6440      2.00000
      6     -37.6435      2.00000
      7     -37.6435      2.00000
      8     -37.6430      2.00000
      9     -37.6430      2.00000
     10     -37.6415      2.00000
     11     -37.6409      2.00000
     12     -37.6409      2.00000
     13      -8.9659      2.00000
     14      -7.7481      2.00000
     15      -7.4019      2.00000
     16      -7.4019      2.00000
     17      -0.4774      2.00000
     18      -0.4774      2.00000
     19      -0.2533      2.00000
     20       1.2575      2.00000
     21       1.2575      2.00000
     22       1.4664      2.00000
     23       1.4664      2.00000
     24       2.0465      2.00000
     25       2.0465      2.00000
     26       2.5485      2.00000
     27       3.2464      2.00000
     28       3.2464      2.00000
     29       6.9622      0.00000
     30       7.3564      0.00000
     31       7.3564      0.00000
     32       8.1054      0.00000
     33       8.4373      0.00000
     34       8.9200      0.00000
     35       8.9200      0.00000
     36      10.4377      0.00000

 k-point     3 :       0.5000    0.0000    0.0000
  band No.  band energies     occupation 
      1     -37.6454      2.00000
      2     -37.6454      2.00000
      3     -37.6454      2.00000
      4     -37.6454      2.00000
      5     -37.6441      2.00000
      6     -37.6441      2.00000
      7     -37.6434      2.00000
      8     -37.6434      2.00000
      9     -37.6420      2.00000
     10     -37.6420      2.00000
     11     -37.6420      2.00000
     12     -37.6420      2.00000
     13      -8.4096      2.00000
     14      -8.4096      2.00000
     15      -7.3762      2.00000
     16      -7.3762      2.00000
     17       0.2513      2.00000
     18       0.2513      2.00000
     19       0.2513      2.00000
     20       0.2513      2.00000
     21       0.9659      2.00000
     22       0.9659      2.00000
     23       1.1537      2.00000
     24       1.1537      2.00000
     25       2.5809      2.00000
     26       2.5809      2.00000
     27       2.5809      2.00000
     28       2.5809      2.00000
     29       8.5697      0.00000
     30       8.5697      0.00000
     31       8.8465      0.00000
     32       8.8465      0.00000
     33       9.0380      0.00000
     34       9.0380      0.00000
     35      11.4446      0.00000
     36      11.4454      0.00000

 k-point     4 :       0.2500    0.2500    0.0000
  band No.  band energies     occupation 
      1     -37.6463      2.00000
      2     -37.6463      2.00000
      3     -37.6462      2.00000
      4     -37.6449      2.00000
      5     -37.6435      2.00000
      6     -37.6435      2.00000
      7     -37.6430      2.00000
      8     -37.6428      2.00000
      9     -37.6428      2.00000
     10     -37.6428      2.00000
     11     -37.6414      2.00000
     12     -37.6406      2.00000
     13      -8.7704      2.00000
     14      -7.6729      2.00000
     15      -7.6729      2.00000
     16      -7.4244      2.00000
     17      -0.2773      2.00000
     18      -0.2773      2.00000
     19      -0.2249      2.00000
     20       0.3029      2.00000
     21       1.4745      2.00000
     22       1.4745      2.00000
     23       1.5893      2.00000
     24       1.9415      2.00000
     25       1.9415      2.00000
     26       2.1775      2.00000
     27       2.8426      2.00000
     28       3.4703      2.00000
     29       7.4222      0.00000
     30       7.9035      0.00000
     31       7.9035      0.00000
     32       8.9412      0.00000
     33       9.1914      0.00000
     34       9.1914      0.00000
     35      10.2034      0.00000
     36      10.6774      0.00000

 k-point     5 :       0.5000    0.2500    0.0000
  band No.  band energies     occupation 
      1     -37.6459      2.00000
      2     -37.6459      2.00000
      3     -37.6450      2.00000
      4     -37.6450      2.00000
      5     -37.6448      2.00000
      6     -37.6448      2.00000
      7     -37.6425      2.00000
      8     -37.6425      2.00000
      9     -37.6424      2.00000
     10     -37.6424      2.00000
     11     -37.6415      2.00000
     12     -37.6415      2.00000
     13      -8.2582      2.00000
     14      -8.2582      2.00000
     15      -7.5218      2.00000
     16      -7.5218      2.00000
     17      -0.2276      2.00000
     18      -0.2276      2.00000
     19       0.4339      2.00000
     20       0.4339      2.00000
     21       0.4920      2.00000
     22       0.4920      2.00000
     23       2.0745      2.00000
     24       2.0745      2.00000
     25       2.0824      2.00000
     26       2.0824      2.00000
     27       2.8808      2.00000
     28       2.8808      2.00000
     29       8.7956      0.00000
     30       8.7956      0.00000
     31       9.3690      0.00000
     32       9.3690      0.00000
     33       9.9391      0.00000
     34       9.9391      0.00000
     35      10.6115      0.00000
     36      10.6274      0.00000

 k-point     6 :       0.5000    0.5000    0.0000
  band No.  band energies     occupation 
      1     -37.6460      2.00000
      2     -37.6460      2.00000
      3     -37.6460      2.00000
      4     -37.6460      2.00000
      5     -37.6437      2.00000
      6     -37.6437      2.00000
      7     -37.6437      2.00000
      8     -37.6437      2.00000
      9     -37.6416      2.00000
     10     -37.6416      2.00000
     11     -37.6416      2.00000
     12     -37.6416      2.00000
     13      -7.8881      2.00000
     14      -7.8881      2.00000
     15      -7.8881      2.00000
     16      -7.8881      2.00000
     17      -0.2114      2.00000
     18      -0.2114      2.00000
     19      -0.2114      2.00000
     20      -0.2114      2.00000
     21       1.1692      2.00000
     22       1.1692      2.00000
     23       1.1692      2.00000
     24       1.1692      2.00000
     25       2.9270      2.00000
     26       2.9270      2.00000
     27       2.9270      2.00000
     28       2.9270      2.00000
     29       9.1799      0.00000
     30       9.1799      0.00000
     31       9.1799      0.00000
     32       9.1799      0.00000
     33      11.1927      0.00000
     34      11.1953      0.00000
     35      11.2036      0.00000
     36      11.2667      0.00000

 k-point     7 :       0.2500    0.2500    0.2500
  band No.  band energies     occupation 
      1     -37.6467      2.00000
      2     -37.6467      2.00000
      3     -37.6467      2.00000
      4     -37.6444      2.00000
      5     -37.6435      2.00000
      6     -37.6435      2.00000
      7     -37.6435      2.00000
      8     -37.6426      2.00000
      9     -37.6426      2.00000
     10     -37.6426      2.00000
     11     -37.6410      2.00000
     12     -37.6410      2.00000
     13      -8.5910      2.00000
     14      -7.6387      2.00000
     15      -7.6387      2.00000
     16      -7.6387      2.00000
     17      -0.5709      2.00000
     18      -0.5709      2.00000
     19      -0.5709      2.00000
     20       0.7035      2.00000
     21       1.3003      2.00000
     22       1.3003      2.00000
     23       1.3003      2.00000
     24       2.3390      2.00000
     25       2.3390      2.00000
     26       2.3390      2.00000
     27       3.2475      2.00000
     28       3.2475      2.00000
     29       7.9199      0.00000
     30       7.9199      0.00000
     31       7.9199      0.00000
     32       8.4590      0.00000
     33      10.2556      0.00000
     34      10.2556      0.00000
     35      10.2556      0.00000
     36      11.3374      0.00000

 k-point     8 :       0.5000    0.2500    0.2500
  band No.  band energies     occupation 
      1     -37.6470      2.00000
      2     -37.6470      2.00000
      3     -37.6462      2.00000
      4     -37.6462      2.00000
      5     -37.6435      2.00000
      6     -37.6435      2.00000
      7     -37.6422      2.00000
      8     -37.6422      2.00000
      9     -37.6418      2.00000
     10     -37.6418      2.00000
     11     -37.6417      2.00000
     12     -37.6417      2.00000
     13      -8.1331      2.00000
     14      -8.1331      2.00000
     15      -7.6037      2.00000
     16      -7.6037      2.00000
     17      -0.8422      2.00000
     18      -0.8422      2.00000
     19      -0.2673      2.00000
     20      -0.2673      2.00000
     21       1.3713      2.00000
     22       1.3713      2.00000
     23       2.3916      2.00000
     24       2.3916      2.00000
     25       2.6325      2.00000
     26       2.6325      2.00000
     27       2.7630      2.00000
     28       2.7630      2.00000
     29       8.7738      0.00000
     30       8.7738      0.00000
     31       9.1191      0.00000
     32       9.1191      0.00000
     33       9.5988      0.00000
     34       9.5988      0.00000
     35      10.1527      0.00000
     36      10.1527      0.00000

 k-point     9 :       0.5000    0.5000    0.2500
  band No.  band energies     occupation 
      1     -37.6473      2.00000
      2     -37.6473      2.00000
      3     -37.6473      2.00000
      4     -37.6473      2.00000
      5     -37.6424      2.00000
      6     -37.6424      2.00000
      7     -37.6424      2.00000
      8     -37.6424      2.00000
      9     -37.6416      2.00000
     10     -37.6416      2.00000
     11     -37.6416      2.00000
     12     -37.6416      2.00000
     13      -7.8472      2.00000
     14      -7.8472      2.00000
     15      -7.8472      2.00000
     16      -7.8472      2.00000
     17      -0.9413      2.00000
     18      -0.9413      2.00000
     19      -0.9413      2.00000
     20      -0.9413      2.00000
     21       2.1766      2.00000
     22       2.1766      2.00000
     23       2.1766      2.00000
     24       2.1766      2.00000
     25       2.9475      2.00000
     26       2.9475      2.00000
     27       2.9475      2.00000
     28       2.9475      2.00000
     29       8.8214      0.00000
     30       8.8214      0.00000
     31       8.8214      0.00000
     32       8.8214      0.00000
     33      10.0215      0.00000
     34      10.0215      0.00000
     35      10.0215      0.00000
     36      10.0215      0.00000

 k-point    10 :       0.5000    0.5000    0.5000
  band No.  band energies     occupation 
      1     -37.6482      2.00000
      2     -37.6482      2.00000
      3     -37.6482      2.00000
      4     -37.6482      2.00000
      5     -37.6416      2.00000
      6     -37.6416      2.00000
      7     -37.6416      2.00000
      8     -37.6416      2.00000
      9     -37.6416      2.00000
     10     -37.6416      2.00000
     11     -37.6416      2.00000
     12     -37.6416      2.00000
     13      -7.8050      2.00000
     14      -7.8050      2.00000
     15      -7.8050      2.00000
     16      -7.8050      2.00000
     17      -1.3787      2.00000
     18      -1.3787      2.00000
     19      -1.3787      2.00000
     20      -1.3787      2.00000
     21       2.9684      2.00000
     22       2.9684      2.00000
     23       2.9684      2.00000
     24       2.9684      2.00000
     25       2.9684      2.00000
     26       2.9684      2.00000
     27       2.9684      2.00000
     28       2.9684      2.00000
     29       8.0028      0.00000
     30       8.0028      0.00000
     31       8.0028      0.00000
     32       8.0028      0.00000
     33      10.4271      0.00000
     34      10.4271      0.00000
     35      10.4271      0.00000
     36      10.4271      0.00000


--------------------------------------------------------------------------------------------------------


 soft charge-density along one line, spin component           1
         0         1         2         3         4         5         6         7         8         9
 total charge-density along one line
 
 pseudopotential strength for first ion, spin component:           1
-49.161   0.000   0.000   5.974   0.000   0.000   0.000   0.000
  0.000 -49.161   0.000   0.000   5.974   0.000   0.000   0.000
  0.000   0.000 -49.161   0.000   0.000   5.974   0.000   0.000
  5.974   0.000   0.000   4.633   0.000   0.000   0.000   0.000
  0.000   5.974   0.000   0.000   4.633   0.000   0.000   0.000
  0.000   0.000   5.974   0.000   0.000   4.633   0.000   0.000
  0.000   0.000   0.000   0.000   0.000   0.000   2.964 -10.871
  0.000   0.000   0.000   0.000   0.000   0.000 -10.871  45.252
  0.000   0.000   0.000   0.000   0.000   0.000   0.000   0.000
  0.000   0.000   0.000   0.000   0.000   0.000   0.000   0.000
  0.000   0.000   0.000   0.000   0.000   0.000   0.000   0.000
  0.000   0.000   0.000   0.000   0.000   0.000   0.000   0.000
  0.000   0.000   0.000   0.000   0.000   0.000   0.000   0.000
 total augmentation occupancy for first ion, spin component:           1
  2.002   0.000   0.000   0.000   0.000   0.000   0.000   0.000   0.000   0.000   0.000   0.000   0.000
  0.000   2.002   0.000   0.000   0.000   0.000   0.000   0.000   0.000   0.000   0.000   0.000   0.000
  0.000   0.000   2.002   0.000   0.000   0.000   0.000   0.000   0.000   0.000   0.000   0.000   0.000
  0.000   0.000   0.000   0.058   0.000   0.000   0.000   0.000   0.000   0.000   0.000   0.000   0.000
  0.000   0.000   0.000   0.000   0.058   0.000   0.000   0.000   0.000   0.000   0.000   0.000   0.000
  0.000   0.000   0.000   0.000   0.000   0.058   0.000   0.000   0.000   0.000   0.000   0.000   0.000
  0.000   0.000   0.000   0.000   0.000   0.000   0.799   0.011   0.000   0.000   0.000   0.000   0.000
  0.000   0.000   0.000   0.000   0.000   0.000   0.011   0.000   0.000   0.000   0.000   0.000   0.000
  0.000   0.000   0.000   0.000   0.000   0.000   0.000   0.000   0.006   0.000   0.000   0.000   0.000
  0.000   0.000   0.000   0.000   0.000   0.000   0.000   0.000   0.000   0.006   0.000   0.000   0.000
  0.000   0.000   0.000   0.000   0.000   0.000   0.000   0.000   0.000   0.000   0.029   0.000   0.000
  0.000   0.000   0.000   0.000   0.000   0.000   0.000   0.000   0.000   0.000   0.000   0.006   0.000
  0.000   0.000   0.000   0.000   0.000   0.000   0.000   0.000   0.000   0.000   0.000   0.000   0.029


------------------------ aborting loop because EDIFF is reached ----------------------------------------


    CHARGE:  cpu time    0.06: real time    0.06
    FORLOC:  cpu time    0.00: real time    0.00
    FORNL :  cpu time    0.22: real time    0.22
    STRESS:  cpu time    0.64: real time    0.64
    FORCOR:  cpu time    0.02: real time    0.02
    FORHAR:  cpu time    0.01: real time    0.01
    MIXING:  cpu time    0.00: real time    0.00
    OFIELD:  cpu time    0.00: real time    0.00

  FORCE on cell =-STRESS in cart. coord.  units (eV):
  Direction    XX          YY          ZZ          XY          YZ          ZX
  --------------------------------------------------------------------------------------
  Alpha Z   152.60682   152.60682   152.60682
  Ewald   -1043.21757 -1043.21757 -1043.21757     0.00000     0.00000     0.00000
  Hartree   385.15046   385.15046   385.15046     0.00000     0.00000     0.00000
  E(xc)    -264.98651  -264.98651  -264.98651     0.00000     0.00000     0.00000
  Local      -7.05334    -7.05334    -7.05334     0.00000     0.00000     0.00000
  n-local    36.88031    38.08014    36.34292    -1.32996    -1.21803    -0.50490
  augment    32.61593    32.61593    32.61591     0.00000    -0.00001    -0.00001
  Kinetic   699.74330   710.78505   712.73091    -2.84359    -2.80886    -1.11974
  Fock        0.00000     0.00000     0.00000     0.00000     0.00000     0.00000
  -------------------------------------------------------------------------------------
  Total      -0.03000    -0.03000    -0.03000     0.00000     0.00000     0.00000
  in kB      -0.34545    -0.34545    -0.34545     0.00000     0.00000     0.00000
  external pressure =       -0.35 kB  Pullay stress =        0.00 kB


 VOLUME and BASIS-vectors are now :
 -----------------------------------------------------------------------------
  energy-cutoff  :      525.11
  volume of cell :      139.13
      direct lattice vectors                 reciprocal lattice vectors
     5.181751290  0.000000000  0.000000000     0.192984947  0.000000000  0.000000000
     0.000000000  5.181751290  0.000000000     0.000000000  0.192984947  0.000000000
     0.000000000  0.000000000  5.181751290     0.000000000  0.000000000  0.192984947

  length of vectors
     5.181751290  5.181751290  5.181751290     0.192984947  0.192984947  0.192984947


 FORCES acting on ions
    electron-ion (+dipol)            ewald-force                    non-local-force                 convergence-correction
 -----------------------------------------------------------------------------------------------
   -.178E-13 -.196E-13 -.193E-13   -.391E-14 -.308E-15 -.507E-14   0.218E-25 -.129E-25 0.000E+00   -.117E-12 -.918E-13 -.847E-13
   -.178E-13 -.379E-13 -.375E-13   -.396E-14 -.259E-14 -.295E-14   -.129E-25 0.000E+00 0.129E-25   -.122E-12 0.524E-13 0.573E-13
   -.312E-13 -.178E-13 -.536E-12   0.350E-14 0.256E-14 -.292E-14   0.808E-26 0.485E-26 -.145E-25   0.293E-13 -.772E-13 0.559E-13
   -.344E-13 0.156E-11 -.278E-11   0.345E-14 0.285E-15 -.110E-13   -.969E-26 0.388E-25 -.452E-25   0.280E-13 0.427E-13 -.925E-13
   0.578E-13 0.267E-14 -.647E-13   -.500E-14 -.711E-15 0.403E-14   -.258E-25 0.000E+00 0.000E+00   0.441E-13 -.485E-13 -.508E-13
   0.571E-13 0.737E-12 0.658E-12   -.479E-14 -.104E-14 0.750E-14   0.258E-25 0.517E-25 0.000E+00   0.452E-13 0.371E-13 0.431E-13
   0.157E-13 0.157E-13 0.617E-13   0.503E-14 0.103E-14 0.753E-14   0.000E+00 0.000E+00 0.000E+00   -.611E-13 -.483E-13 0.424E-13
   0.159E-13 0.600E-13 0.180E-13   0.524E-14 0.694E-15 0.337E-14   0.517E-25 -.207E-24 0.000E+00   -.593E-13 0.385E-13 -.522E-13
 -----------------------------------------------------------------------------------------------
   0.452E-13 0.230E-11 -.270E-11   -.449E-15 -.820E-16 0.526E-15   0.590E-25 -.124E-24 -.469E-25   -.214E-12 -.951E-13 -.816E-13
 
 
 POSITION                                       TOTAL-FORCE (eV/Angst)
 -----------------------------------------------------------------------------------
      0.00000      0.00000      0.00000         0.000000      0.000000      0.000000
      0.00000      2.59088      2.59088         0.000000      0.000000      0.000000
      2.59088      0.00000      2.59088         0.000000      0.000000      0.000000
      2.59088      2.59088      0.00000         0.000000      0.000000      0.000000
      2.59088      0.00000      0.00000         0.000000      0.000000      0.000000
      2.59088      2.59088      2.59088         0.000000      0.000000      0.000000
      0.00000      0.00000      2.59088         0.000000      0.000000      0.000000
      0.00000      2.59088      0.00000         0.000000      0.000000      0.000000
 -----------------------------------------------------------------------------------
    total drift:                                0.000000      0.000000      0.000000


--------------------------------------------------------------------------------------------------------



  FREE ENERGIE OF THE ION-ELECTRON SYSTEM (eV)
  ---------------------------------------------------
  free  energy   TOTEN  =       -36.22850286 eV

  energy  without entropy=      -36.22850286  energy(sigma->0) =      -36.22850286
 


--------------------------------------------------------------------------------------------------------


    POTLOK:  cpu time    0.05: real time    0.05


--------------------------------------------------------------------------------------------------------




--------------------------------------------------------------------------------------------------------


    WAVPRE:  cpu time    0.00: real time    0.01
 FEWALD executed in parallel
    FEWALD:  cpu time    0.00: real time    0.00
    GENKIN:  cpu time    0.01: real time    0.01
    ORTHCH:  cpu time    0.01: real time    0.01
     LOOP+:  cpu time    6.38: real time    6.42


----------------------------------------- Iteration    2(   1)  ---------------------------------------


    POTLOK:  cpu time    0.02: real time    0.02
    SETDIJ:  cpu time    0.03: real time    0.03
     EDDAV:  cpu time    0.28: real time    0.28
       DOS:  cpu time    0.00: real time    0.00
    CHARGE:  cpu time    0.06: real time    0.06
[...]
      3     -37.6464      2.00000
      4     -37.6440      2.00000
      5     -37.6440      2.00000
      6     -37.6435      2.00000
      7     -37.6435      2.00000
      8     -37.6430      2.00000
      9     -37.6430      2.00000
     10     -37.6415      2.00000
     11     -37.6409      2.00000
     12     -37.6409      2.00000
     13      -8.9659      2.00000
     14      -7.7481      2.00000
     15      -7.4019      2.00000
     16      -7.4019      2.00000
     17      -0.4774      2.00000
     18      -0.4774      2.00000
     19      -0.2533      2.00000
     20       1.2575      2.00000
     21       1.2575      2.00000
     22       1.4664      2.00000
     23       1.4664      2.00000
     24       2.0465      2.00000
     25       2.0465      2.00000
     26       2.5485      2.00000
     27       3.2464      2.00000
     28       3.2464      2.00000
     29       6.9622      0.00000
     30       7.3564      0.00000
     31       7.3564      0.00000
     32       8.1054      0.00000
     33       8.4373      0.00000
     34       8.9200      0.00000
     35       8.9200      0.00000
     36      10.4377      0.00000

 k-point     3 :       0.5000    0.0000    0.0000
  band No.  band energies     occupation 
      1     -37.6454      2.00000
      2     -37.6454      2.00000
      3     -37.6454      2.00000
      4     -37.6454      2.00000
      5     -37.6441      2.00000
      6     -37.6441      2.00000
      7     -37.6434      2.00000
      8     -37.6434      2.00000
      9     -37.6420      2.00000
     10     -37.6420      2.00000
     11     -37.6420      2.00000
     12     -37.6420      2.00000
     13      -8.4096      2.00000
     14      -8.4096      2.00000
     15      -7.3762      2.00000
     16      -7.3762      2.00000
     17       0.2513      2.00000
     18       0.2513      2.00000
     19       0.2513      2.00000
     20       0.2513      2.00000
     21       0.9659      2.00000
     22       0.9659      2.00000
     23       1.1537      2.00000
     24       1.1537      2.00000
     25       2.5809      2.00000
     26       2.5809      2.00000
     27       2.5809      2.00000
     28       2.5809      2.00000
     29       8.5697      0.00000
     30       8.5697      0.00000
     31       8.8465      0.00000
     32       8.8465      0.00000
     33       9.0380      0.00000
     34       9.0380      0.00000
     35      11.4444      0.00000
     36      11.4444      0.00000

 k-point     4 :       0.2500    0.2500    0.0000
  band No.  band energies     occupation 
      1     -37.6463      2.00000
      2     -37.6463      2.00000
      3     -37.6462      2.00000
      4     -37.6449      2.00000
      5     -37.6435      2.00000
      6     -37.6435      2.00000
      7     -37.6430      2.00000
      8     -37.6428      2.00000
      9     -37.6428      2.00000
     10     -37.6428      2.00000
     11     -37.6414      2.00000
     12     -37.6406      2.00000
     13      -8.7704      2.00000
     14      -7.6729      2.00000
     15      -7.6729      2.00000
     16      -7.4244      2.00000
     17      -0.2773      2.00000
     18      -0.2773      2.00000
     19      -0.2249      2.00000
     20       0.3029      2.00000
     21       1.4745      2.00000
     22       1.4745      2.00000
     23       1.5893      2.00000
     24       1.9415      2.00000
     25       1.9415      2.00000
     26       2.1775      2.00000
     27       2.8426      2.00000
     28       3.4703      2.00000
     29       7.4222      0.00000
     30       7.9035      0.00000
     31       7.9035      0.00000
     32       8.9412      0.00000
     33       9.1914      0.00000
     34       9.1914      0.00000
     35      10.2034      0.00000
     36      10.6774      0.00000

 k-point     5 :       0.5000    0.2500    0.0000
  band No.  band energies     occupation 
      1     -37.6459      2.00000
      2     -37.6459      2.00000
      3     -37.6450      2.00000
      4     -37.6450      2.00000
      5     -37.6448      2.00000
      6     -37.6448      2.00000
      7     -37.6425      2.00000
      8     -37.6425      2.00000
      9     -37.6424      2.00000
     10     -37.6424      2.00000
     11     -37.6415      2.00000
     12     -37.6415      2.00000
     13      -8.2582      2.00000
     14      -8.2582      2.00000
     15      -7.5218      2.00000
     16      -7.5218      2.00000
     17      -0.2276      2.00000
     18      -0.2276      2.00000
     19       0.4339      2.00000
     20       0.4339      2.00000
     21       0.4920      2.00000
     22       0.4920      2.00000
     23       2.0745      2.00000
     24       2.0745      2.00000
     25       2.0824      2.00000
     26       2.0824      2.00000
     27       2.8808      2.00000
     28       2.8808      2.00000
     29       8.7956      0.00000
     30       8.7956      0.00000
     31       9.3690      0.00000
     32       9.3690      0.00000
     33       9.9391      0.00000
     34       9.9391      0.00000
     35      10.6107      0.00000
     36      10.6107      0.00000

 k-point     6 :       0.5000    0.5000    0.0000
  band No.  band energies     occupation 
      1     -37.6460      2.00000
      2     -37.6460      2.00000
      3     -37.6460      2.00000
      4     -37.6460      2.00000
      5     -37.6437      2.00000
      6     -37.6437      2.00000
      7     -37.6437      2.00000
      8     -37.6437      2.00000
      9     -37.6416      2.00000
     10     -37.6416      2.00000
     11     -37.6416      2.00000
     12     -37.6416      2.00000
     13      -7.8881      2.00000
     14      -7.8881      2.00000
     15      -7.8881      2.00000
     16      -7.8881      2.00000
     17      -0.2114      2.00000
     18      -0.2114      2.00000
     19      -0.2114      2.00000
     20      -0.2114      2.00000
     21       1.1692      2.00000
     22       1.1692      2.00000
     23       1.1692      2.00000
     24       1.1692      2.00000
     25       2.9270      2.00000
     26       2.9270      2.00000
     27       2.9270      2.00000
     28       2.9270      2.00000
     29       9.1799      0.00000
     30       9.1799      0.00000
     31       9.1799      0.00000
     32       9.1799      0.00000
     33      11.1917      0.00000
     34      11.1917      0.00000
     35      11.1917      0.00000
     36      11.1917      0.00000

 k-point     7 :       0.2500    0.2500    0.2500
  band No.  band energies     occupation 
      1     -37.6467      2.00000
      2     -37.6467      2.00000
      3     -37.6467      2.00000
      4     -37.6444      2.00000
      5     -37.6435      2.00000
      6     -37.6435      2.00000
      7     -37.6435      2.00000
      8     -37.6426      2.00000
      9     -37.6426      2.00000
     10     -37.6426      2.00000
     11     -37.6410      2.00000
     12     -37.6410      2.00000
     13      -8.5910      2.00000
     14      -7.6387      2.00000
     15      -7.6387      2.00000
     16      -7.6387      2.00000
     17      -0.5709      2.00000
     18      -0.5709      2.00000
     19      -0.5709      2.00000
     20       0.7035      2.00000
     21       1.3003      2.00000
     22       1.3003      2.00000
     23       1.3003      2.00000
     24       2.3390      2.00000
     25       2.3390      2.00000
     26       2.3390      2.00000
     27       3.2475      2.00000
     28       3.2475      2.00000
     29       7.9199      0.00000
     30       7.9199      0.00000
     31       7.9199      0.00000
     32       8.4590      0.00000
     33      10.2556      0.00000
     34      10.2556      0.00000
     35      10.2556      0.00000
     36      11.3374      0.00000

 k-point     8 :       0.5000    0.2500    0.2500
  band No.  band energies     occupation 
      1     -37.6470      2.00000
      2     -37.6470      2.00000
      3     -37.6462      2.00000
      4     -37.6462      2.00000
      5     -37.6435      2.00000
      6     -37.6435      2.00000
      7     -37.6422      2.00000
      8     -37.6422      2.00000
      9     -37.6418      2.00000
     10     -37.6418      2.00000
     11     -37.6417      2.00000
     12     -37.6417      2.00000
     13      -8.1331      2.00000
     14      -8.1331      2.00000
     15      -7.6037      2.00000
     16      -7.6037      2.00000
     17      -0.8422      2.00000
     18      -0.8422      2.00000
     19      -0.2673      2.00000
     20      -0.2673      2.00000
     21       1.3713      2.00000
     22       1.3713      2.00000
     23       2.3916      2.00000
     24       2.3916      2.00000
     25       2.6325      2.00000
     26       2.6325      2.00000
     27       2.7630      2.00000
     28       2.7630      2.00000
     29       8.7738      0.00000
     30       8.7738      0.00000
     31       9.1191      0.00000
     32       9.1191      0.00000
     33       9.5988      0.00000
     34       9.5988      0.00000
     35      10.1527      0.00000
     36      10.1527      0.00000

 k-point     9 :       0.5000    0.5000    0.2500
  band No.  band energies     occupation 
      1     -37.6473      2.00000
      2     -37.6473      2.00000
      3     -37.6473      2.00000
      4     -37.6473      2.00000
      5     -37.6424      2.00000
      6     -37.6424      2.00000
      7     -37.6424      2.00000
      8     -37.6424      2.00000
      9     -37.6416      2.00000
     10     -37.6416      2.00000
     11     -37.6416      2.00000
     12     -37.6416      2.00000
     13      -7.8472      2.00000
     14      -7.8472      2.00000
     15      -7.8472      2.00000
     16      -7.8472      2.00000
     17      -0.9413      2.00000
     18      -0.9413      2.00000
     19      -0.9413      2.00000
     20      -0.9413      2.00000
     21       2.1766      2.00000
     22       2.1766      2.00000
     23       2.1766      2.00000
     24       2.1766      2.00000
     25       2.9475      2.00000
     26       2.9475      2.00000
     27       2.9475      2.00000
     28       2.9475      2.00000
     29       8.8214      0.00000
     30       8.8214      0.00000
     31       8.8214      0.00000
     32       8.8214      0.00000
     33      10.0215      0.00000
     34      10.0215      0.00000
     35      10.0215      0.00000
     36      10.0215      0.00000

 k-point    10 :       0.5000    0.5000    0.5000
  band No.  band energies     occupation 
      1     -37.6482      2.00000
      2     -37.6482      2.00000
      3     -37.6482      2.00000
      4     -37.6482      2.00000
      5     -37.6416      2.00000
      6     -37.6416      2.00000
      7     -37.6416      2.00000
      8     -37.6416      2.00000
      9     -37.6416      2.00000
     10     -37.6416      2.00000
     11     -37.6416      2.00000
     12     -37.6416      2.00000
     13      -7.8050      2.00000
     14      -7.8050      2.00000
     15      -7.8050      2.00000
     16      -7.8050      2.00000
     17      -1.3787      2.00000
     18      -1.3787      2.00000
     19      -1.3787      2.00000
     20      -1.3787      2.00000
     21       2.9684      2.00000
     22       2.9684      2.00000
     23       2.9684      2.00000
     24       2.9684      2.00000
     25       2.9684      2.00000
     26       2.9684      2.00000
     27       2.9684      2.00000
     28       2.9684      2.00000
     29       8.0028      0.00000
     30       8.0028      0.00000
     31       8.0028      0.00000
     32       8.0028      0.00000
     33      10.4271      0.00000
     34      10.4271      0.00000
     35      10.4271      0.00000
     36      10.4271      0.00000


--------------------------------------------------------------------------------------------------------


 soft charge-density along one line, spin component           1
         0         1         2         3         4         5         6         7         8         9
 total charge-density along one line
 
 pseudopotential strength for first ion, spin component:           1
-49.161   0.000   0.000   5.974   0.000   0.000   0.000   0.000
  0.000 -49.161   0.000   0.000   5.974   0.000   0.000   0.000
  0.000   0.000 -49.161   0.000   0.000   5.974   0.000   0.000
  5.974   0.000   0.000   4.633   0.000   0.000   0.000   0.000
  0.000   5.974   0.000   0.000   4.633   0.000   0.000   0.000
  0.000   0.000   5.974   0.000   0.000   4.633   0.000   0.000
  0.000   0.000   0.000   0.000   0.000   0.000   2.964 -10.871
  0.000   0.000   0.000   0.000   0.000   0.000 -10.871  45.252
  0.000   0.000   0.000   0.000   0.000   0.000   0.000   0.000
  0.000   0.000   0.000   0.000   0.000   0.000   0.000   0.000
  0.000   0.000   0.000   0.000   0.000   0.000   0.000   0.000
  0.000   0.000   0.000   0.000   0.000   0.000   0.000   0.000
  0.000   0.000   0.000   0.000   0.000   0.000   0.000   0.000
 total augmentation occupancy for first ion, spin component:           1
  2.002   0.000   0.000   0.000   0.000   0.000   0.000   0.000   0.000   0.000   0.000   0.000   0.000
  0.000   2.002   0.000   0.000   0.000   0.000   0.000   0.000   0.000   0.000   0.000   0.000   0.000
  0.000   0.000   2.002   0.000   0.000   0.000   0.000   0.000   0.000   0.000   0.000   0.000   0.000
  0.000   0.000   0.000   0.058   0.000   0.000   0.000   0.000   0.000   0.000   0.000   0.000   0.000
  0.000   0.000   0.000   0.000   0.058   0.000   0.000   0.000   0.000   0.000   0.000   0.000   0.000
  0.000   0.000   0.000   0.000   0.000   0.058   0.000   0.000   0.000   0.000   0.000   0.000   0.000
  0.000   0.000   0.000   0.000   0.000   0.000   0.799   0.011   0.000   0.000   0.000   0.000   0.000
  0.000   0.000   0.000   0.000   0.000   0.000   0.011   0.000   0.000   0.000   0.000   0.000   0.000
  0.000   0.000   0.000   0.000   0.000   0.000   0.000   0.000   0.006   0.000   0.000   0.000   0.000
  0.000   0.000   0.000   0.000   0.000   0.000   0.000   0.000   0.000   0.006   0.000   0.000   0.000
  0.000   0.000   0.000   0.000   0.000   0.000   0.000   0.000   0.000   0.000   0.029   0.000   0.000
  0.000   0.000   0.000   0.000   0.000   0.000   0.000   0.000   0.000   0.000   0.000   0.006   0.000
  0.000   0.000   0.000   0.000   0.000   0.000   0.000   0.000   0.000   0.000   0.000   0.000   0.029


------------------------ aborting loop because EDIFF is reached ----------------------------------------


    CHARGE:  cpu time    0.06: real time    0.06
    FORLOC:  cpu time    0.00: real time    0.00
    FORNL :  cpu time    0.22: real time    0.22
    STRESS:  cpu time    0.64: real time    0.64
    FORCOR:  cpu time    0.02: real time    0.02
    FORHAR:  cpu time    0.00: real time    0.01
    MIXING:  cpu time    0.00: real time    0.00
    OFIELD:  cpu time    0.00: real time    0.00

  FORCE on cell =-STRESS in cart. coord.  units (eV):
  Direction    XX          YY          ZZ          XY          YZ          ZX
  --------------------------------------------------------------------------------------
  Alpha Z   152.60682   152.60682   152.60682
  Ewald   -1043.21757 -1043.21757 -1043.21757     0.00000     0.00000     0.00000
  Hartree   385.15046   385.15046   385.15046     0.00000     0.00000     0.00000
  E(xc)    -264.98651  -264.98651  -264.98651     0.00000     0.00000     0.00000
  Local      -7.05335    -7.05335    -7.05335     0.00000     0.00000     0.00000
  n-local    36.88028    38.08011    36.34288    -1.32996    -1.21803    -0.50490
  augment    32.61593    32.61593    32.61591     0.00000    -0.00001    -0.00001
  Kinetic   699.74331   710.78506   712.73092    -2.84359    -2.80886    -1.11974
  Fock        0.00000     0.00000     0.00000     0.00000     0.00000     0.00000
  -------------------------------------------------------------------------------------
  Total      -0.03003    -0.03003    -0.03003     0.00000     0.00000     0.00000
  in kB      -0.34584    -0.34584    -0.34584     0.00000     0.00000     0.00000
  external pressure =       -0.35 kB  Pullay stress =        0.00 kB


 VOLUME and BASIS-vectors are now :
 -----------------------------------------------------------------------------
  energy-cutoff  :      525.11
  volume of cell :      139.13
      direct lattice vectors                 reciprocal lattice vectors
     5.181751290  0.000000000  0.000000000     0.192984947  0.000000000  0.000000000
     0.000000000  5.181751290  0.000000000     0.000000000  0.192984947  0.000000000
     0.000000000  0.000000000  5.181751290     0.000000000  0.000000000  0.192984947

  length of vectors
     5.181751290  5.181751290  5.181751290     0.192984947  0.192984947  0.192984947


 FORCES acting on ions
    electron-ion (+dipol)            ewald-force                    non-local-force                 convergence-correction
 -----------------------------------------------------------------------------------------------
   -.192E-13 -.215E-13 -.164E-13   -.391E-14 -.308E-15 -.507E-14   -.687E-26 0.129E-25 0.000E+00   -.875E-13 -.695E-13 -.927E-13
   -.189E-13 -.423E-13 -.409E-13   -.396E-14 -.259E-14 -.295E-14   0.000E+00 0.000E+00 0.000E+00   -.958E-13 0.539E-13 0.598E-13
   -.376E-13 -.205E-13 -.540E-12   0.350E-14 0.256E-14 -.292E-14   0.319E-27 -.646E-26 -.323E-26   0.505E-13 -.824E-13 0.717E-13
   -.365E-13 0.156E-11 -.278E-11   0.345E-14 0.285E-15 -.110E-13   -.687E-26 0.000E+00 -.646E-26   0.482E-13 0.529E-13 -.648E-13
   0.562E-13 0.506E-14 -.597E-13   -.500E-14 -.711E-15 0.403E-14   -.404E-25 0.000E+00 0.258E-25   0.424E-13 -.516E-13 -.544E-13
   0.558E-13 0.741E-12 0.661E-12   -.479E-14 -.104E-14 0.750E-14   -.137E-25 0.775E-25 0.258E-25   0.405E-13 0.386E-13 0.399E-13
   0.146E-13 0.181E-13 0.619E-13   0.503E-14 0.103E-14 0.753E-14   -.129E-25 -.258E-25 0.258E-25   -.552E-13 -.511E-13 0.411E-13
   0.147E-13 0.616E-13 0.243E-13   0.524E-14 0.694E-15 0.337E-14   -.388E-25 0.000E+00 0.258E-25   -.565E-13 0.352E-13 -.518E-13
 -----------------------------------------------------------------------------------------------
   0.291E-13 0.230E-11 -.269E-11   -.449E-15 -.820E-16 0.526E-15   -.119E-24 0.582E-25 0.937E-25   -.113E-12 -.740E-13 -.511E-13
 
 
 POSITION                                       TOTAL-FORCE (eV/Angst)
 -----------------------------------------------------------------------------------
      0.00000      0.00000      0.00000         0.000000      0.000000      0.000000
      0.00000      2.59088      2.59088         0.000000      0.000000      0.000000
      2.59088      0.00000      2.59088         0.000000      0.000000      0.000000
      2.59088      2.59088      0.00000         0.000000      0.000000      0.000000
      2.59088      0.00000      0.00000         0.000000      0.000000      0.000000
      2.59088      2.59088      2.59088         0.000000      0.000000      0.000000
      0.00000      0.00000      2.59088         0.000000      0.000000      0.000000
      0.00000      2.59088      0.00000         0.000000      0.000000      0.000000
 -----------------------------------------------------------------------------------
    total drift:                                0.000000      0.000000      0.000000


--------------------------------------------------------------------------------------------------------



  FREE ENERGIE OF THE ION-ELECTRON SYSTEM (eV)
  ---------------------------------------------------
  free  energy   TOTEN  =       -36.22850285 eV

  energy  without entropy=      -36.22850285  energy(sigma->0) =      -36.22850285
 
 d Force = 0.0000000E+00[ 0.000E+00, 0.000E+00]  d Energy =-0.6669464E-05 0.667E-05
 d Force = 0.0000000E+00[ 0.000E+00, 0.000E+00]  d Ewald  =-0.4702432E+00 0.470E+00


--------------------------------------------------------------------------------------------------------


    POTLOK:  cpu time    0.05: real time    0.05


--------------------------------------------------------------------------------------------------------


