  64  64   0   0
  0.1720993E+02  0.1032729E-08  0.1032729E-08  0.1032729E-08  0.5000000E-15
  1.000000000000000E-004
  CAR 
 unknown system                          
     12.93561990    -39.94334244  301      3.81399889      1.00000000
    -39.943  0.0000E+00  0.0000E+00
    -39.767  0.0000E+00  0.0000E+00
    -39.591  0.0000E+00  0.0000E+00
    -39.415  0.0000E+00  0.0000E+00
    -39.238  0.0000E+00  0.0000E+00
    -39.062  0.0000E+00  0.0000E+00
    -38.886  0.0000E+00  0.0000E+00
    -38.709  0.0000E+00  0.0000E+00
    -38.533  0.0000E+00  0.0000E+00
    -38.357  0.0000E+00  0.0000E+00
    -38.181  0.0000E+00  0.0000E+00
    -38.004  0.0000E+00  0.0000E+00
    -37.828  0.0000E+00  0.0000E+00
    -37.652  0.0000E+00  0.0000E+00
    -37.476  0.1089E+04  0.1920E+03
    -37.299  0.0000E+00  0.1920E+03
    -37.123  0.0000E+00  0.1920E+03
    -36.947  0.0000E+00  0.1920E+03
    -36.771  0.0000E+00  0.1920E+03
    -36.594  0.0000E+00  0.1920E+03
    -36.418  0.0000E+00  0.1920E+03
    -36.242  0.0000E+00  0.1920E+03
    -36.066  0.0000E+00  0.1920E+03
    -35.889  0.0000E+00  0.1920E+03
    -35.713  0.0000E+00  0.1920E+03
    -35.537  0.0000E+00  0.1920E+03
    -35.360  0.0000E+00  0.1920E+03
    -35.184  0.0000E+00  0.1920E+03
    -35.008  0.0000E+00  0.1920E+03
    -34.832  0.0000E+00  0.1920E+03
    -34.655  0.0000E+00  0.1920E+03
    -34.479  0.0000E+00  0.1920E+03
    -34.303  0.0000E+00  0.1920E+03
    -34.127  0.0000E+00  0.1920E+03
    -33.950  0.0000E+00  0.1920E+03
    -33.774  0.0000E+00  0.1920E+03
    -33.598  0.0000E+00  0.1920E+03
    -33.422  0.0000E+00  0.1920E+03
    -33.245  0.0000E+00  0.1920E+03
    -33.069  0.0000E+00  0.1920E+03
    -32.893  0.0000E+00  0.1920E+03
    -32.717  0.0000E+00  0.1920E+03
    -32.540  0.0000E+00  0.1920E+03
    -32.364  0.0000E+00  0.1920E+03
    -32.188  0.0000E+00  0.1920E+03
    -32.011  0.0000E+00  0.1920E+03
    -31.835  0.0000E+00  0.1920E+03
    -31.659  0.0000E+00  0.1920E+03
    -31.483  0.0000E+00  0.1920E+03
    -31.306  0.0000E+00  0.1920E+03
    -31.130  0.0000E+00  0.1920E+03
    -30.954  0.0000E+00  0.1920E+03
    -30.778  0.0000E+00  0.1920E+03
    -30.601  0.0000E+00  0.1920E+03
    -30.425  0.0000E+00  0.1920E+03
    -30.249  0.0000E+00  0.1920E+03
    -30.073  0.0000E+00  0.1920E+03
    -29.896  0.0000E+00  0.1920E+03
    -29.720  0.0000E+00  0.1920E+03
    -29.544  0.0000E+00  0.1920E+03
    -29.368  0.0000E+00  0.1920E+03
    -29.191  0.0000E+00  0.1920E+03
    -29.015  0.0000E+00  0.1920E+03
    -28.839  0.0000E+00  0.1920E+03
    -28.662  0.0000E+00  0.1920E+03
    -28.486  0.0000E+00  0.1920E+03
    -28.310  0.0000E+00  0.1920E+03
    -28.134  0.0000E+00  0.1920E+03
    -27.957  0.0000E+00  0.1920E+03
    -27.781  0.0000E+00  0.1920E+03
    -27.605  0.0000E+00  0.1920E+03
    -27.429  0.0000E+00  0.1920E+03
    -27.252  0.0000E+00  0.1920E+03
    -27.076  0.0000E+00  0.1920E+03
    -26.900  0.0000E+00  0.1920E+03
    -26.724  0.0000E+00  0.1920E+03
    -26.547  0.0000E+00  0.1920E+03
    -26.371  0.0000E+00  0.1920E+03
    -26.195  0.0000E+00  0.1920E+03
    -26.019  0.0000E+00  0.1920E+03
    -25.842  0.0000E+00  0.1920E+03
    -25.666  0.0000E+00  0.1920E+03
    -25.490  0.0000E+00  0.1920E+03
    -25.313  0.0000E+00  0.1920E+03
    -25.137  0.0000E+00  0.1920E+03
    -24.961  0.0000E+00  0.1920E+03
    -24.785  0.0000E+00  0.1920E+03
    -24.608  0.0000E+00  0.1920E+03
    -24.432  0.0000E+00  0.1920E+03
    -24.256  0.0000E+00  0.1920E+03
    -24.080  0.0000E+00  0.1920E+03
    -23.903  0.0000E+00  0.1920E+03
    -23.727  0.0000E+00  0.1920E+03
    -23.551  0.0000E+00  0.1920E+03
    -23.375  0.0000E+00  0.1920E+03
    -23.198  0.0000E+00  0.1920E+03
    -23.022  0.0000E+00  0.1920E+03
    -22.846  0.0000E+00  0.1920E+03
    -22.670  0.0000E+00  0.1920E+03
    -22.493  0.0000E+00  0.1920E+03
    -22.317  0.0000E+00  0.1920E+03
    -22.141  0.0000E+00  0.1920E+03
    -21.964  0.0000E+00  0.1920E+03
    -21.788  0.0000E+00  0.1920E+03
    -21.612  0.0000E+00  0.1920E+03
    -21.436  0.0000E+00  0.1920E+03
    -21.259  0.0000E+00  0.1920E+03
    -21.083  0.0000E+00  0.1920E+03
    -20.907  0.0000E+00  0.1920E+03
    -20.731  0.0000E+00  0.1920E+03
    -20.554  0.0000E+00  0.1920E+03
    -20.378  0.0000E+00  0.1920E+03
    -20.202  0.0000E+00  0.1920E+03
    -20.026  0.0000E+00  0.1920E+03
    -19.849  0.0000E+00  0.1920E+03
    -19.673  0.0000E+00  0.1920E+03
    -19.497  0.0000E+00  0.1920E+03
    -19.321  0.0000E+00  0.1920E+03
    -19.144  0.0000E+00  0.1920E+03
    -18.968  0.0000E+00  0.1920E+03
    -18.792  0.0000E+00  0.1920E+03
    -18.615  0.0000E+00  0.1920E+03
    -18.439  0.0000E+00  0.1920E+03
    -18.263  0.0000E+00  0.1920E+03
    -18.087  0.0000E+00  0.1920E+03
    -17.910  0.0000E+00  0.1920E+03
    -17.734  0.0000E+00  0.1920E+03
    -17.558  0.0000E+00  0.1920E+03
    -17.382  0.0000E+00  0.1920E+03
    -17.205  0.0000E+00  0.1920E+03
    -17.029  0.0000E+00  0.1920E+03
    -16.853  0.0000E+00  0.1920E+03
    -16.677  0.0000E+00  0.1920E+03
    -16.500  0.0000E+00  0.1920E+03
    -16.324  0.0000E+00  0.1920E+03
    -16.148  0.0000E+00  0.1920E+03
    -15.972  0.0000E+00  0.1920E+03
    -15.795  0.0000E+00  0.1920E+03
    -15.619  0.0000E+00  0.1920E+03
    -15.443  0.0000E+00  0.1920E+03
    -15.266  0.0000E+00  0.1920E+03
    -15.090  0.0000E+00  0.1920E+03
    -14.914  0.0000E+00  0.1920E+03
    -14.738  0.0000E+00  0.1920E+03
    -14.561  0.0000E+00  0.1920E+03
    -14.385  0.0000E+00  0.1920E+03
    -14.209  0.0000E+00  0.1920E+03
    -14.033  0.0000E+00  0.1920E+03
    -13.856  0.0000E+00  0.1920E+03
    -13.680  0.0000E+00  0.1920E+03
    -13.504  0.0000E+00  0.1920E+03
    -13.328  0.0000E+00  0.1920E+03
    -13.151  0.0000E+00  0.1920E+03
    -12.975  0.0000E+00  0.1920E+03
    -12.799  0.0000E+00  0.1920E+03
    -12.623  0.0000E+00  0.1920E+03
    -12.446  0.0000E+00  0.1920E+03
    -12.270  0.0000E+00  0.1920E+03
    -12.094  0.0000E+00  0.1920E+03
    -11.917  0.0000E+00  0.1920E+03
    -11.741  0.0000E+00  0.1920E+03
    -11.565  0.0000E+00  0.1920E+03
    -11.389  0.0000E+00  0.1920E+03
    -11.212  0.0000E+00  0.1920E+03
    -11.036  0.0000E+00  0.1920E+03
    -10.860  0.0000E+00  0.1920E+03
    -10.684  0.0000E+00  0.1920E+03
    -10.507  0.0000E+00  0.1920E+03
    -10.331  0.0000E+00  0.1920E+03
    -10.155  0.0000E+00  0.1920E+03
     -9.979  0.0000E+00  0.1920E+03
     -9.802  0.0000E+00  0.1920E+03
     -9.626  0.0000E+00  0.1920E+03
     -9.450  0.0000E+00  0.1920E+03
     -9.274  0.0000E+00  0.1920E+03
     -9.097  0.1418E+01  0.1922E+03
     -8.921  0.7800E+01  0.1936E+03
     -8.745  0.5723E+00  0.1939E+03
     -8.568  0.3435E-01  0.1968E+03
     -8.392  0.3596E-03  0.1988E+03
     -8.216  0.6523E+01  0.2014E+03
     -8.040  0.3404E+02  0.2122E+03
     -7.863  0.5497E-04  0.2123E+03
     -7.687  0.1056E+02  0.2231E+03
     -7.511  0.6808E+02  0.2417E+03
     -7.335  0.2839E+02  0.2528E+03
     -7.158  0.0000E+00  0.2560E+03
     -6.982  0.0000E+00  0.2560E+03
     -6.806  0.0000E+00  0.2560E+03
     -6.630  0.0000E+00  0.2560E+03
     -6.453  0.0000E+00  0.2560E+03
     -6.277  0.0000E+00  0.2560E+03
     -6.101  0.0000E+00  0.2560E+03
     -5.925  0.0000E+00  0.2560E+03
     -5.748  0.0000E+00  0.2560E+03
     -5.572  0.0000E+00  0.2560E+03
     -5.396  0.0000E+00  0.2560E+03
     -5.219  0.0000E+00  0.2560E+03
     -5.043  0.0000E+00  0.2560E+03
     -4.867  0.0000E+00  0.2560E+03
     -4.691  0.0000E+00  0.2560E+03
     -4.514  0.0000E+00  0.2560E+03
     -4.338  0.0000E+00  0.2560E+03
     -4.162  0.0000E+00  0.2560E+03
     -3.986  0.0000E+00  0.2560E+03
     -3.809  0.0000E+00  0.2560E+03
     -3.633  0.0000E+00  0.2560E+03
     -3.457  0.0000E+00  0.2560E+03
     -3.281  0.0000E+00  0.2560E+03
     -3.104  0.0000E+00  0.2560E+03
     -2.928  0.0000E+00  0.2560E+03
     -2.752  0.0000E+00  0.2560E+03
     -2.576  0.0000E+00  0.2560E+03
     -2.399  0.0000E+00  0.2560E+03
     -2.223  0.0000E+00  0.2560E+03
     -2.047  0.0000E+00  0.2560E+03
     -1.870  0.0000E+00  0.2560E+03
     -1.694  0.0000E+00  0.2560E+03
     -1.518  0.0000E+00  0.2560E+03
     -1.342  0.3105E+01  0.2565E+03
     -1.165  0.0000E+00  0.2570E+03
     -0.989  0.0000E+00  0.2570E+03
     -0.813  0.1951E+01  0.2633E+03
     -0.637  0.4255E+01  0.2698E+03
     -0.460  0.3405E+02  0.2758E+03
     -0.284  0.1408E-12  0.2788E+03
     -0.108  0.6808E+02  0.3042E+03
      0.068  0.0000E+00  0.3042E+03
      0.245  0.2989E-12  0.3042E+03
      0.421  0.1702E+02  0.3102E+03
      0.597  0.3404E+02  0.3222E+03
      0.773  0.7603E+01  0.3236E+03
      0.950  0.0000E+00  0.3242E+03
      1.126  0.0000E+00  0.3258E+03
      1.302  0.1732E+02  0.3303E+03
      1.479  0.3404E+02  0.3452E+03
      1.655  0.4834E+00  0.3543E+03
      1.831  0.0000E+00  0.3572E+03
      2.007  0.1002E+02  0.3605E+03
      2.184  0.8510E+02  0.3797E+03
      2.360  0.1794E-11  0.3888E+03
      2.536  0.3404E+02  0.4008E+03
      2.712  0.4832E+02  0.4093E+03
      2.889  0.3404E+02  0.4173E+03
      3.065  0.6225E+02  0.4372E+03
      3.241  0.0000E+00  0.4372E+03
      3.417  0.0000E+00  0.4442E+03
      3.594  0.1702E+02  0.4472E+03
      3.770  0.0000E+00  0.4480E+03
      3.946  0.0000E+00  0.4480E+03
      4.122  0.0000E+00  0.4480E+03
      4.299  0.0000E+00  0.4480E+03
      4.475  0.0000E+00  0.4480E+03
      4.651  0.0000E+00  0.4480E+03
      4.828  0.0000E+00  0.4480E+03
      5.004  0.0000E+00  0.4480E+03
      5.180  0.0000E+00  0.4480E+03
      5.356  0.0000E+00  0.4480E+03
      5.533  0.0000E+00  0.4480E+03
      5.709  0.0000E+00  0.4480E+03
      5.885  0.0000E+00  0.4480E+03
      6.061  0.0000E+00  0.4480E+03
      6.238  0.0000E+00  0.4480E+03
      6.414  0.1701E-01  0.4480E+03
      6.590  0.0000E+00  0.4488E+03
      6.766  0.0000E+00  0.4488E+03
      6.943  0.0000E+00  0.4488E+03
      7.119  0.8510E+01  0.4502E+03
      7.295  0.0000E+00  0.4502E+03
      7.471  0.4480E+01  0.4510E+03
      7.648  0.0000E+00  0.4565E+03
      7.824  0.2515E-02  0.4565E+03
      8.000  0.6206E-02  0.4573E+03
      8.177  0.1314E+02  0.4716E+03
      8.353  0.0000E+00  0.4718E+03
      8.529  0.7873E-16  0.4718E+03
      8.705  0.5061E+01  0.4761E+03
      8.882  0.4434E+01  0.4775E+03
      9.058  0.2553E+02  0.4993E+03
      9.234  0.1292E+02  0.5060E+03
      9.410  0.0000E+00  0.5188E+03
      9.587  0.3262E+02  0.5248E+03
      9.763  0.1702E+02  0.5277E+03
      9.939  0.0000E+00  0.5278E+03
     10.115  0.1418E+01  0.5322E+03
     10.292  0.0000E+00  0.5322E+03
     10.468  0.0000E+00  0.5352E+03
     10.644  0.0000E+00  0.5360E+03
     10.820  0.0000E+00  0.5360E+03
     10.997  0.0000E+00  0.5360E+03
     11.173  0.0000E+00  0.5360E+03
     11.349  0.0000E+00  0.5360E+03
     11.526  0.0000E+00  0.5360E+03
     11.702  0.0000E+00  0.5360E+03
     11.878  0.0000E+00  0.5360E+03
     12.054  0.0000E+00  0.5360E+03
     12.231  0.0000E+00  0.5360E+03
     12.407  0.0000E+00  0.5360E+03
     12.583  0.0000E+00  0.5360E+03
     12.759  0.0000E+00  0.5360E+03
     12.936  0.0000E+00  0.5360E+03
