   64   64    1    1
  0.1720993E+02  0.1032729E-08  0.1032729E-08  0.1032729E-08  0.5000000E-15
  1.000000000000000E-004
  CAR 
 unknown system                          
    448      6    268
 
  0.0000000E+00  0.0000000E+00  0.0000000E+00  0.1250000E+00
    1      -37.539748
    2      -37.539281
    3      -37.539281
    4      -37.533862
    5      -37.533782
    6      -37.533782
    7      -37.533583
    8      -37.532636
    9      -37.532599
   10      -37.532599
   11      -37.531903
   12      -37.531613
   13      -37.531613
   14      -37.531577
   15      -37.531577
   16      -37.531531
   17      -37.531525
   18      -37.531295
   19      -37.531295
   20      -37.530967
   21      -37.530963
   22      -37.530890
   23      -37.530890
   24      -37.530691
   25      -37.530691
   26      -37.530617
   27      -37.530617
   28      -37.530483
   29      -37.530483
   30      -37.530445
   31      -37.530342
   32      -37.530073
   33      -37.529730
   34      -37.529730
   35      -37.529550
   36      -37.529486
   37      -37.529450
   38      -37.529434
   39      -37.529268
   40      -37.529268
   41      -37.529106
   42      -37.529088
   43      -37.528923
   44      -37.528922
   45      -37.528915
   46      -37.528915
   47      -37.528899
   48      -37.528899
   49      -37.528889
   50      -37.528889
   51      -37.528877
   52      -37.528877
   53      -37.528768
   54      -37.528768
   55      -37.528723
   56      -37.528694
   57      -37.528678
   58      -37.528651
   59      -37.528136
   60      -37.528136
   61      -37.528009
   62      -37.528009
   63      -37.527770
   64      -37.527624
   65      -37.527475
   66      -37.527475
   67      -37.527387
   68      -37.527304
   69      -37.527304
   70      -37.527240
   71      -37.527240
   72      -37.526948
   73      -37.526944
   74      -37.526885
   75      -37.526885
   76      -37.526829
   77      -37.526829
   78      -37.526748
   79      -37.526748
   80      -37.526613
   81      -37.526601
   82      -37.526525
   83      -37.526520
   84      -37.526400
   85      -37.526400
   86      -37.526396
   87      -37.526396
   88      -37.526221
   89      -37.526220
   90      -37.526096
   91      -37.525643
   92      -37.525295
   93      -37.525295
   94      -37.518771
   95      -37.518771
   96      -37.518292
   97       -9.142951
   98       -8.365076
   99       -8.364388
  100       -8.364385
  101       -8.364385
  102       -8.364384
  103       -8.363700
  104       -7.833177
  105       -7.832313
  106       -7.832313
  107       -7.831221
  108       -7.831210
  109       -7.831210
  110       -7.831210
  111       -7.831208
  112       -7.831199
  113       -7.830138
  114       -7.830138
  115       -7.829268
  116       -7.745240
  117       -7.745221
  118       -7.745208
  119       -7.745208
  120       -7.359309
  121       -7.359260
  122       -7.359241
  123       -7.307482
  124       -7.306699
  125       -7.306693
  126       -7.306693
  127       -7.306674
  128       -7.305852
  129       -1.342542
  130       -1.342542
  131       -1.342538
  132       -1.342538
  133       -0.695892
  134       -0.695892
  135       -0.695888
  136       -0.159302
  137       -0.157757
  138       -0.157757
  139       -0.157530
  140       -0.157514
  141       -0.157507
  142       -0.157505
  143       -0.157505
  144       -0.157486
  145       -0.157256
  146       -0.157256
  147       -0.155724
  148        0.297259
  149        0.297259
  150        0.298235
  151        0.298235
  152        0.298571
  153        0.298571
  154        0.298573
  155        0.298589
  156        0.298908
  157        0.298908
  158        0.299873
  159        0.299873
  160        1.036262
  161        1.036824
  162        1.036824
  163        1.036830
  164        1.036831
  165        1.037390
  166        1.215124
  167        1.216760
  168        1.216760
  169        1.216972
  170        1.216975
  171        1.218200
  172        1.224355
  173        1.224355
  174        1.226193
  175        1.226312
  176        1.226314
  177        1.226315
  178        1.226315
  179        1.226317
  180        1.226436
  181        1.226934
  182        1.228502
  183        1.228502
  184        1.920304
  185        1.920304
  186        1.920309
  187        1.920310
  188        1.920327
  189        1.920327
  190        2.657274
  191        2.657274
  192        2.658745
  193        2.658745
  194        2.658896
  195        2.658921
  196        2.658922
  197        2.658923
  198        2.659095
  199        2.659095
  200        2.660586
  201        2.660586
  202        3.005703
  203        3.006542
  204        3.007324
  205        3.007330
  206        3.007330
  207        3.007383
  208        3.007400
  209        3.007400
  210        3.007444
  211        3.007444
  212        3.008147
  213        3.009037
  214        3.049268
  215        3.049268
  216        3.049273
  217        3.049294
  218        3.049294
  219        3.049319
  220        3.049333
  221        3.049347
  222        3.677252
  223        3.677265
  224        3.677265
  225        6.432625
  226        6.432636
  227        6.432646
  228        7.453064
  229        7.846918
  230        7.846918
  231        7.846922
  232        8.111025
  233        8.111045
  234        8.111045
  235        8.111052
  236        8.702285
  237        8.703601
  238        8.703601
  239        8.703617
  240        8.703626
  241        8.704867
  242        8.977876
  243        8.980523
  244        8.980523
  245        8.980592
  246        8.980605
  247        8.983314
  248        9.106510
  249        9.107372
  250        9.107373
  251        9.107407
  252        9.107407
  253        9.108226
  254        9.286757
  255        9.286844
  256        9.286844
  257        9.287320
  258        9.287546
  259        9.287573
  260        9.287573
  261        9.287582
  262        9.287834
  263        9.288311
  264        9.288311
  265        9.288388
  266       10.531976
  267       10.532018
  268       10.532031
 
  0.5000000E+00  0.0000000E+00  0.0000000E+00  0.1250000E+00
    1      -37.539741
    2      -37.539284
    3      -37.539284
    4      -37.533459
    5      -37.533459
    6      -37.533073
    7      -37.532978
    8      -37.532556
    9      -37.532417
   10      -37.532238
   11      -37.532238
   12      -37.532089
   13      -37.532007
   14      -37.531871
   15      -37.531871
   16      -37.531749
   17      -37.531749
   18      -37.531600
   19      -37.531600
   20      -37.531498
   21      -37.531498
   22      -37.531468
   23      -37.531443
   24      -37.531210
   25      -37.530798
   26      -37.530793
   27      -37.530539
   28      -37.530539
   29      -37.530400
   30      -37.530270
   31      -37.530114
   32      -37.529965
   33      -37.529921
   34      -37.529892
   35      -37.529892
   36      -37.529841
   37      -37.529841
   38      -37.529767
   39      -37.529764
   40      -37.529529
   41      -37.529529
   42      -37.529303
   43      -37.529303
   44      -37.529111
   45      -37.528766
   46      -37.528761
   47      -37.528707
   48      -37.528707
   49      -37.528501
   50      -37.528501
   51      -37.528298
   52      -37.528217
   53      -37.528217
   54      -37.528112
   55      -37.528109
   56      -37.528056
   57      -37.528001
   58      -37.527900
   59      -37.527900
   60      -37.527860
   61      -37.527860
   62      -37.527847
   63      -37.527842
   64      -37.527804
   65      -37.527804
   66      -37.527564
   67      -37.527564
   68      -37.527453
   69      -37.527278
   70      -37.527278
   71      -37.527213
   72      -37.527083
   73      -37.527077
   74      -37.526905
   75      -37.526778
   76      -37.526777
   77      -37.526775
   78      -37.526771
   79      -37.526771
   80      -37.526644
   81      -37.526641
   82      -37.526631
   83      -37.526631
   84      -37.526501
   85      -37.526500
   86      -37.526348
   87      -37.526348
   88      -37.526269
   89      -37.526269
   90      -37.526125
   91      -37.526041
   92      -37.525350
   93      -37.525350
   94      -37.518778
   95      -37.518778
   96      -37.518294
   97       -8.931217
   98       -8.930382
   99       -8.210608
  100       -8.210582
  101       -8.210582
  102       -8.210047
  103       -8.209500
  104       -8.208946
  105       -8.208946
  106       -8.208917
  107       -7.790627
  108       -7.790627
  109       -7.789148
  110       -7.788987
  111       -7.788958
  112       -7.788809
  113       -7.787319
  114       -7.787319
  115       -7.689857
  116       -7.687155
  117       -7.457939
  118       -7.456840
  119       -7.456840
  120       -7.456830
  121       -7.455174
  122       -7.455152
  123       -7.455152
  124       -7.454023
  125       -7.334919
  126       -7.333275
  127       -7.333159
  128       -7.331508
  129       -0.900162
  130       -0.900033
  131       -0.899061
  132       -0.899061
  133       -0.898869
  134       -0.898869
  135       -0.897903
  136       -0.897775
  137       -0.437928
  138       -0.437928
  139       -0.437193
  140       -0.437193
  141       -0.205549
  142       -0.203554
  143       -0.181851
  144       -0.180134
  145       -0.180134
  146       -0.179869
  147       -0.179640
  148       -0.179378
  149       -0.179378
  150       -0.177522
  151        0.496886
  152        0.497707
  153        0.497707
  154        0.497709
  155        0.498726
  156        0.498726
  157        0.498734
  158        0.499564
  159        0.540940
  160        0.540959
  161        0.541677
  162        0.541677
  163        0.541724
  164        0.541724
  165        0.542437
  166        0.542457
  167        1.315746
  168        1.315746
  169        1.318751
  170        1.318751
  171        1.531337
  172        1.532330
  173        1.532788
  174        1.533800
  175        2.117555
  176        2.117555
  177        2.118407
  178        2.118407
  179        2.141478
  180        2.141478
  181        2.142988
  182        2.143073
  183        2.144448
  184        2.144531
  185        2.145861
  186        2.145861
  187        2.150198
  188        2.152499
  189        2.152499
  190        2.152595
  191        2.153097
  192        2.153412
  193        2.153412
  194        2.155335
  195        2.245986
  196        2.245986
  197        2.246396
  198        2.247376
  199        2.247996
  200        2.249120
  201        2.249461
  202        2.249461
  203        2.637082
  204        2.638407
  205        2.960529
  206        2.960602
  207        2.960602
  208        2.961174
  209        2.961630
  210        2.962207
  211        2.962207
  212        2.962291
  213        3.026360
  214        3.026561
  215        3.028113
  216        3.028113
  217        3.028176
  218        3.028176
  219        3.029708
  220        3.029913
  221        3.332573
  222        3.332573
  223        3.335376
  224        3.335376
  225        7.078889
  226        7.080494
  227        7.475153
  228        7.477789
  229        7.478251
  230        7.480862
  231        8.167808
  232        8.168788
  233        8.612536
  234        8.615420
  235        8.912265
  236        8.912265
  237        8.912477
  238        8.913584
  239        8.914894
  240        8.915477
  241        8.915971
  242        8.915971
  243        8.934132
  244        8.934132
  245        8.934712
  246        8.935371
  247        8.935460
  248        8.936554
  249        8.936824
  250        8.936824
  251        8.995067
  252        8.995067
  253        8.997666
  254        8.997666
  255        9.504528
  256        9.507844
  257        9.507844
  258        9.508511
  259        9.508788
  260        9.509430
  261        9.509430
  262        9.512721
  263       10.024010
  264       10.024585
  265       10.025421
  266       10.027204
  267       10.027749
  268       10.039562
 
  0.0000000E+00  0.5000000E+00  0.0000000E+00  0.2500000E+00
    1      -37.539753
    2      -37.539280
    3      -37.539265
    4      -37.533162
    5      -37.533139
    6      -37.532947
    7      -37.532877
    8      -37.532877
    9      -37.532876
   10      -37.532874
   11      -37.532626
   12      -37.532434
   13      -37.532376
   14      -37.532296
   15      -37.531787
   16      -37.531495
   17      -37.531465
   18      -37.531364
   19      -37.531320
   20      -37.531240
   21      -37.531114
   22      -37.530982
   23      -37.530914
   24      -37.530833
   25      -37.530718
   26      -37.530544
   27      -37.530462
   28      -37.530454
   29      -37.530244
   30      -37.530212
   31      -37.530203
   32      -37.530178
   33      -37.530173
   34      -37.530079
   35      -37.530071
   36      -37.530056
   37      -37.529956
   38      -37.529871
   39      -37.529645
   40      -37.529612
   41      -37.529606
   42      -37.529478
   43      -37.529459
   44      -37.529086
   45      -37.528957
   46      -37.528837
   47      -37.528809
   48      -37.528794
   49      -37.528589
   50      -37.528539
   51      -37.528432
   52      -37.528421
   53      -37.528356
   54      -37.528098
   55      -37.528084
   56      -37.527984
   57      -37.527981
   58      -37.527944
   59      -37.527700
   60      -37.527698
   61      -37.527678
   62      -37.527625
   63      -37.527559
   64      -37.527506
   65      -37.527504
   66      -37.527491
   67      -37.527473
   68      -37.527449
   69      -37.527416
   70      -37.527387
   71      -37.527370
   72      -37.527274
   73      -37.527217
   74      -37.527186
   75      -37.527166
   76      -37.527006
   77      -37.526836
   78      -37.526832
   79      -37.526761
   80      -37.526752
   81      -37.526727
   82      -37.526590
   83      -37.526496
   84      -37.526496
   85      -37.526489
   86      -37.526246
   87      -37.526202
   88      -37.525953
   89      -37.525863
   90      -37.525823
   91      -37.525763
   92      -37.525724
   93      -37.525708
   94      -37.518780
   95      -37.518774
   96      -37.518300
   97       -8.930802
   98       -8.930797
   99       -8.211139
  100       -8.210312
  101       -8.209771
  102       -8.209766
  103       -8.209762
  104       -8.209762
  105       -8.209215
  106       -8.208409
  107       -7.790151
  108       -7.789008
  109       -7.788983
  110       -7.788973
  111       -7.788971
  112       -7.788965
  113       -7.788941
  114       -7.787812
  115       -7.688508
  116       -7.688507
  117       -7.456563
  118       -7.456416
  119       -7.455998
  120       -7.455998
  121       -7.455987
  122       -7.455978
  123       -7.455596
  124       -7.455432
  125       -7.333218
  126       -7.333212
  127       -7.333211
  128       -7.333179
  129       -0.899976
  130       -0.899344
  131       -0.899131
  132       -0.898974
  133       -0.898963
  134       -0.898802
  135       -0.898589
  136       -0.897968
  137       -0.437562
  138       -0.437562
  139       -0.437558
  140       -0.437554
  141       -0.204520
  142       -0.204495
  143       -0.180571
  144       -0.180181
  145       -0.179759
  146       -0.179753
  147       -0.179753
  148       -0.179749
  149       -0.179293
  150       -0.178924
  151        0.497288
  152        0.497904
  153        0.498172
  154        0.498216
  155        0.498218
  156        0.498219
  157        0.498541
  158        0.499122
  159        0.539560
  160        0.541632
  161        0.541700
  162        0.541701
  163        0.541702
  164        0.541752
  165        0.541766
  166        0.543875
  167        1.317233
  168        1.317235
  169        1.317242
  170        1.317245
  171        1.532552
  172        1.532567
  173        1.532571
  174        1.532588
  175        2.117924
  176        2.117931
  177        2.117988
  178        2.118015
  179        2.141783
  180        2.143468
  181        2.143504
  182        2.143714
  183        2.143754
  184        2.143754
  185        2.143804
  186        2.145642
  187        2.151955
  188        2.152393
  189        2.152847
  190        2.152849
  191        2.152884
  192        2.153052
  193        2.153553
  194        2.154018
  195        2.245714
  196        2.247433
  197        2.247476
  198        2.247671
  199        2.247710
  200        2.247897
  201        2.247950
  202        2.249728
  203        2.637743
  204        2.637752
  205        2.959938
  206        2.960403
  207        2.961387
  208        2.961402
  209        2.961404
  210        2.961406
  211        2.962403
  212        2.962930
  213        3.026981
  214        3.028129
  215        3.028134
  216        3.028135
  217        3.028136
  218        3.028139
  219        3.028176
  220        3.029329
  221        3.333966
  222        3.333969
  223        3.333971
  224        3.333986
  225        7.079677
  226        7.079683
  227        7.478002
  228        7.478006
  229        7.478016
  230        7.478025
  231        8.168278
  232        8.168297
  233        8.613955
  234        8.613982
  235        8.911840
  236        8.913877
  237        8.913984
  238        8.914233
  239        8.914235
  240        8.914240
  241        8.914430
  242        8.916147
  243        8.934204
  244        8.934284
  245        8.934473
  246        8.935260
  247        8.935566
  248        8.936626
  249        8.936626
  250        8.936862
  251        8.996338
  252        8.996382
  253        8.996386
  254        8.996421
  255        9.507088
  256        9.508358
  257        9.508641
  258        9.508643
  259        9.508645
  260        9.508669
  261        9.508924
  262        9.510177
  263       10.024223
  264       10.024757
  265       10.025197
  266       10.025497
  267       10.026183
  268       10.030171
 
  0.5000000E+00  0.5000000E+00  0.0000000E+00  0.2500000E+00
    1      -37.539727
    2      -37.539252
    3      -37.539244
    4      -37.533004
    5      -37.532993
    6      -37.532860
    7      -37.532843
    8      -37.532630
    9      -37.532623
   10      -37.532613
   11      -37.532579
   12      -37.532308
   13      -37.532175
   14      -37.532165
   15      -37.531797
   16      -37.531756
   17      -37.531752
   18      -37.531581
   19      -37.531518
   20      -37.531506
   21      -37.531480
   22      -37.531266
   23      -37.531150
   24      -37.531061
   25      -37.531039
   26      -37.531036
   27      -37.530781
   28      -37.530735
   29      -37.530708
   30      -37.530636
   31      -37.530405
   32      -37.530079
   33      -37.530052
   34      -37.529892
   35      -37.529796
   36      -37.529477
   37      -37.529334
   38      -37.529274
   39      -37.529167
   40      -37.529045
   41      -37.528986
   42      -37.528917
   43      -37.528917
   44      -37.528899
   45      -37.528831
   46      -37.528827
   47      -37.528615
   48      -37.528525
   49      -37.528453
   50      -37.528430
   51      -37.528378
   52      -37.528344
   53      -37.528296
   54      -37.528268
   55      -37.528260
   56      -37.528207
   57      -37.528089
   58      -37.528022
   59      -37.528010
   60      -37.527937
   61      -37.527881
   62      -37.527876
   63      -37.527700
   64      -37.527669
   65      -37.527545
   66      -37.527452
   67      -37.527387
   68      -37.527381
   69      -37.527377
   70      -37.527333
   71      -37.527297
   72      -37.527180
   73      -37.527175
   74      -37.527157
   75      -37.527115
   76      -37.527070
   77      -37.526932
   78      -37.526899
   79      -37.526889
   80      -37.526800
   81      -37.526682
   82      -37.526632
   83      -37.526516
   84      -37.526495
   85      -37.526455
   86      -37.526233
   87      -37.526145
   88      -37.525777
   89      -37.525711
   90      -37.525667
   91      -37.525655
   92      -37.525567
   93      -37.525512
   94      -37.518752
   95      -37.518740
   96      -37.518262
   97       -8.732347
   98       -8.732144
   99       -8.731456
  100       -8.731240
  101       -8.083024
  102       -8.082494
  103       -8.081966
  104       -8.081704
  105       -8.081658
  106       -8.081374
  107       -8.080850
  108       -8.080325
  109       -7.613390
  110       -7.612200
  111       -7.612030
  112       -7.611468
  113       -7.610920
  114       -7.610368
  115       -7.610209
  116       -7.609044
  117       -7.541139
  118       -7.541051
  119       -7.540475
  120       -7.539917
  121       -7.539369
  122       -7.538802
  123       -7.538230
  124       -7.538064
  125       -7.357314
  126       -7.356629
  127       -7.355494
  128       -7.354795
  129       -0.802314
  130       -0.802273
  131       -0.802159
  132       -0.801905
  133       -0.801551
  134       -0.801313
  135       -0.801184
  136       -0.801146
  137       -0.230738
  138       -0.229384
  139       -0.229313
  140       -0.228931
  141       -0.228650
  142       -0.228254
  143       -0.228200
  144       -0.226924
  145       -0.215134
  146       -0.214719
  147       -0.214494
  148       -0.214475
  149       -0.213374
  150       -0.213342
  151       -0.213066
  152       -0.212570
  153       -0.183156
  154       -0.182818
  155       -0.182406
  156       -0.182080
  157        0.353741
  158        0.354096
  159        0.355567
  160        0.355927
  161        1.431115
  162        1.432048
  163        1.432139
  164        1.432175
  165        1.432759
  166        1.432771
  167        1.432900
  168        1.433820
  169        1.533641
  170        1.535826
  171        1.535869
  172        1.536280
  173        1.536879
  174        1.537284
  175        1.537331
  176        1.539564
  177        1.667509
  178        1.668002
  179        1.668528
  180        1.669034
  181        2.008837
  182        2.010105
  183        2.010737
  184        2.010810
  185        2.011526
  186        2.011591
  187        2.012228
  188        2.013465
  189        2.249267
  190        2.249400
  191        2.250036
  192        2.250146
  193        2.463325
  194        2.464766
  195        2.464957
  196        2.465167
  197        2.465712
  198        2.465932
  199        2.466118
  200        2.467547
  201        2.707911
  202        2.708353
  203        2.708634
  204        2.708809
  205        2.709669
  206        2.709822
  207        2.710110
  208        2.710521
  209        2.841769
  210        2.841837
  211        2.841910
  212        2.842331
  213        2.842525
  214        2.842879
  215        2.842946
  216        2.843030
  217        2.920722
  218        2.922460
  219        2.923558
  220        2.925354
  221        3.559642
  222        3.559890
  223        3.560548
  224        3.560780
  225        7.527102
  226        7.527330
  227        7.528712
  228        7.528926
  229        8.024283
  230        8.026669
  231        8.026882
  232        8.026925
  233        8.027661
  234        8.027696
  235        8.027888
  236        8.030294
  237        8.887821
  238        8.888987
  239        8.889182
  240        8.889500
  241        8.889676
  242        8.889966
  243        8.890093
  244        8.891302
  245        9.106839
  246        9.107971
  247        9.110416
  248        9.111452
  249        9.233354
  250        9.235738
  251        9.235751
  252        9.236127
  253        9.236546
  254        9.236927
  255        9.236948
  256        9.238672
  257        9.266820
  258        9.269378
  259        9.269664
  260        9.269964
  261        9.270249
  262        9.270558
  263        9.270845
  264        9.274016
  265        9.713433
  266        9.713882
  267        9.714057
  268        9.714705
 
  0.0000000E+00  0.5000000E+00  0.5000000E+00  0.1250000E+00
    1      -37.539718
    2      -37.539253
    3      -37.539253
    4      -37.533325
    5      -37.533253
    6      -37.532687
    7      -37.532687
    8      -37.532602
    9      -37.532373
   10      -37.532274
   11      -37.532274
   12      -37.532198
   13      -37.532198
   14      -37.532046
   15      -37.531983
   16      -37.531907
   17      -37.531827
   18      -37.531827
   19      -37.531803
   20      -37.531794
   21      -37.531224
   22      -37.531219
   23      -37.531190
   24      -37.531021
   25      -37.531021
   26      -37.531015
   27      -37.531015
   28      -37.530704
   29      -37.530617
   30      -37.530617
   31      -37.530112
   32      -37.530096
   33      -37.530021
   34      -37.529720
   35      -37.529720
   36      -37.529580
   37      -37.529534
   38      -37.529278
   39      -37.529278
   40      -37.529023
   41      -37.528861
   42      -37.528848
   43      -37.528848
   44      -37.528841
   45      -37.528822
   46      -37.528818
   47      -37.528818
   48      -37.528809
   49      -37.528691
   50      -37.528645
   51      -37.528645
   52      -37.528626
   53      -37.528267
   54      -37.528264
   55      -37.528238
   56      -37.528238
   57      -37.528126
   58      -37.528113
   59      -37.528102
   60      -37.528102
   61      -37.527563
   62      -37.527562
   63      -37.527559
   64      -37.527260
   65      -37.527255
   66      -37.527254
   67      -37.527248
   68      -37.527246
   69      -37.527246
   70      -37.527200
   71      -37.527143
   72      -37.527143
   73      -37.527058
   74      -37.526935
   75      -37.526935
   76      -37.526935
   77      -37.526933
   78      -37.526926
   79      -37.526926
   80      -37.526912
   81      -37.526897
   82      -37.526776
   83      -37.526776
   84      -37.526611
   85      -37.526466
   86      -37.526389
   87      -37.526255
   88      -37.526012
   89      -37.526012
   90      -37.525967
   91      -37.525967
   92      -37.525207
   93      -37.525134
   94      -37.518739
   95      -37.518739
   96      -37.518273
   97       -8.731803
   98       -8.731795
   99       -8.731795
  100       -8.731793
  101       -8.083766
  102       -8.081695
  103       -8.081695
  104       -8.081671
  105       -8.081669
  106       -8.081648
  107       -8.081648
  108       -8.079606
  109       -7.611304
  110       -7.611231
  111       -7.611231
  112       -7.611198
  113       -7.611194
  114       -7.611194
  115       -7.611194
  116       -7.611192
  117       -7.539647
  118       -7.539647
  119       -7.539643
  120       -7.539638
  121       -7.539636
  122       -7.539604
  123       -7.539604
  124       -7.539534
  125       -7.356064
  126       -7.356059
  127       -7.356059
  128       -7.356035
  129       -0.802354
  130       -0.802354
  131       -0.801739
  132       -0.801731
  133       -0.801730
  134       -0.801728
  135       -0.801104
  136       -0.801104
  137       -0.228835
  138       -0.228799
  139       -0.228799
  140       -0.228798
  141       -0.228778
  142       -0.228778
  143       -0.228777
  144       -0.228777
  145       -0.215603
  146       -0.214129
  147       -0.214129
  148       -0.213924
  149       -0.213891
  150       -0.213697
  151       -0.213697
  152       -0.212409
  153       -0.182618
  154       -0.182608
  155       -0.182608
  156       -0.182369
  157        0.354820
  158        0.354834
  159        0.354835
  160        0.354835
  161        1.431029
  162        1.431029
  163        1.432452
  164        1.432470
  165        1.432472
  166        1.432475
  167        1.433877
  168        1.433877
  169        1.536573
  170        1.536574
  171        1.536574
  172        1.536579
  173        1.536579
  174        1.536579
  175        1.536579
  176        1.536585
  177        1.668271
  178        1.668271
  179        1.668294
  180        1.668294
  181        2.011153
  182        2.011166
  183        2.011166
  184        2.011169
  185        2.011170
  186        2.011171
  187        2.011207
  188        2.011207
  189        2.249701
  190        2.249701
  191        2.249702
  192        2.249703
  193        2.465019
  194        2.465019
  195        2.465441
  196        2.465444
  197        2.465445
  198        2.465445
  199        2.465881
  200        2.465881
  201        2.707840
  202        2.708471
  203        2.708471
  204        2.709204
  205        2.709253
  206        2.709981
  207        2.709981
  208        2.710614
  209        2.841352
  210        2.841352
  211        2.842356
  212        2.842388
  213        2.842391
  214        2.842422
  215        2.843426
  216        2.843426
  217        2.923008
  218        2.923028
  219        2.923043
  220        2.923043
  221        3.560213
  222        3.560213
  223        3.560229
  224        3.560229
  225        7.528020
  226        7.528020
  227        7.528026
  228        7.528037
  229        8.027200
  230        8.027280
  231        8.027280
  232        8.027289
  233        8.027289
  234        8.027289
  235        8.027289
  236        8.027305
  237        8.888902
  238        8.889382
  239        8.889555
  240        8.889555
  241        8.889612
  242        8.889612
  243        8.889774
  244        8.890279
  245        9.109071
  246        9.109163
  247        9.109163
  248        9.109192
  249        9.236103
  250        9.236103
  251        9.236335
  252        9.236340
  253        9.236340
  254        9.236423
  255        9.236574
  256        9.236574
  257        9.270050
  258        9.270091
  259        9.270091
  260        9.270104
  261        9.270108
  262        9.270108
  263        9.270111
  264        9.270125
  265        9.712840
  266        9.713822
  267        9.714263
  268        9.714605
 