       N       E                     dE             d eps       ncg     rms          rms(c)
DAV:   1     0.431607297692E+04    0.43161E+04   -0.26677E+05  3896   0.166E+03
DAV:   2     0.100685412223E+03   -0.42154E+04   -0.40640E+04  3848   0.433E+02
DAV:   3    -0.282000913880E+03   -0.38269E+03   -0.37897E+03  3880   0.119E+02
DAV:   4    -0.300658284891E+03   -0.18657E+02   -0.18586E+02  3640   0.222E+01
DAV:   5    -0.301529213533E+03   -0.87093E+00   -0.87018E+00  4024   0.482E+00    0.250E+01
DAV:   6    -0.291134504698E+03    0.10395E+02   -0.20855E+01  3592   0.697E+00    0.181E+01
DAV:   7    -0.289872615064E+03    0.12619E+01   -0.81214E+00  3752   0.406E+00    0.894E+00
DAV:   8    -0.289792728847E+03    0.79886E-01   -0.74508E-01  3528   0.176E+00    0.236E+00
DAV:   9    -0.289788036265E+03    0.46926E-02   -0.26283E-02  3656   0.352E-01    0.467E-01
DAV:  10    -0.289788474630E+03   -0.43836E-03   -0.56976E-03  3760   0.131E-01    0.218E-01
DAV:  11    -0.289788237243E+03    0.23739E-03   -0.94527E-04  3520   0.610E-02    0.223E-02
DAV:  12    -0.289788239820E+03   -0.25772E-05   -0.27883E-05  3736   0.108E-02    0.253E-02
DAV:  13    -0.289788242803E+03   -0.29823E-05   -0.60662E-06  3552   0.566E-03    0.493E-03
DAV:  14    -0.289788242562E+03    0.24075E-06   -0.24794E-06  3568   0.319E-03    0.224E-03
DAV:  15    -0.289788242285E+03    0.27682E-06   -0.85762E-08  3088   0.641E-04    0.256E-03
DAV:  16    -0.289788242292E+03   -0.71377E-08   -0.13133E-07  2984   0.602E-04    0.116E-03
DAV:  17    -0.289788242151E+03    0.14134E-06   -0.25046E-08  2584   0.484E-04    0.160E-03
DAV:  18    -0.289788242198E+03   -0.47454E-07   -0.75795E-09  1984   0.150E-04    0.112E-03
DAV:  19    -0.289788242267E+03   -0.68547E-07   -0.19817E-09  1968   0.825E-05    0.404E-04
DAV:  20    -0.289788242332E+03   -0.65265E-07   -0.26812E-09  1936   0.870E-05    0.472E-04
DAV:  21    -0.289788242281E+03    0.51361E-07   -0.71114E-10  1944   0.519E-05    0.110E-04
DAV:  22    -0.289788242265E+03    0.15680E-07   -0.46500E-10  1928   0.232E-05    0.465E-05
DAV:  23    -0.289788242272E+03   -0.71450E-08   -0.18068E-10  1944   0.139E-05
   1 F= -.28978824E+03 E0= -.28978824E+03  d E =-.133075E-83
