<?xml version="1.0" encoding="ISO-8859-1"?>
<modeling>
 <generator>
  <i name="program" type="string">vasp </i>
  <i name="version" type="string">5.3.5  </i>
  <i name="subversion" type="string">31Mar14 (build Nov 07 2014 11:36:17) complex                          parallel </i>
  <i name="platform" type="string">LinuxIFC </i>
  <i name="date" type="string">2015 10 15 </i>
  <i name="time" type="string">02:20:00 </i>
 </generator>
 <incar>
  <i type="string" name="PREC">accurate</i>
  <i type="int" name="IALGO">    38</i>
  <i type="logical" name="ADDGRID"> T  </i>
  <i type="int" name="NELMIN">     5</i>
  <i type="int" name="IBRION">    -1</i>
  <i name="EDIFF">      0.00000001</i>
  <i name="ENCUT">    525.10770000</i>
  <i type="logical" name="LREAL"> F  </i>
  <i type="int" name="ISMEAR">     0</i>
  <i name="SIGMA">      0.01000000</i>
  <i type="logical" name="LWAVE"> F  </i>
  <i type="logical" name="LCHARG"> F  </i>
  <i type="string" name="GGA"> PS</i>
 </incar>
 <kpoints>
  <generation param="Gamma">
   <v type="int" name="divisions">       2        2        2 </v>
   <v name="usershift">      0.00000000       0.00000000       0.00000000 </v>
   <v name="genvec1">      0.50000000       0.00000000       0.00000000 </v>
   <v name="genvec2">      0.00000000       0.50000000       0.00000000 </v>
   <v name="genvec3">      0.00000000       0.00000000       0.50000000 </v>
   <v name="shift">      0.00000000       0.00000000       0.00000000 </v>
  </generation>
  <varray name="kpointlist" >
   <v>       0.00000000       0.00000000       0.00000000 </v>
   <v>       0.50000000       0.00000000       0.00000000 </v>
   <v>       0.00000000       0.50000000       0.00000000 </v>
   <v>       0.50000000       0.50000000       0.00000000 </v>
   <v>       0.00000000       0.50000000       0.50000000 </v>
   <v>       0.50000000       0.50000000       0.50000000 </v>
  </varray>
  <varray name="weights" >
   <v>       0.12500000 </v>
   <v>       0.12500000 </v>
   <v>       0.25000000 </v>
   <v>       0.25000000 </v>
   <v>       0.12500000 </v>
   <v>       0.12500000 </v>
  </varray>
 </kpoints>
 <parameters>
  <separator name="general" >
   <i type="string" name="SYSTEM">unknown system</i>
   <i type="logical" name="LCOMPAT"> F  </i>
  </separator>
  <separator name="electronic" >
   <i type="string" name="PREC">accura</i>
   <i name="ENMAX">    525.10770000</i>
   <i name="ENAUG">    758.78000000</i>
   <i name="EDIFF">      0.00000001</i>
   <i type="int" name="IALGO">    38</i>
   <i type="int" name="IWAVPR">    10</i>
   <i type="int" name="NBANDS">   268</i>
   <i name="NELECT">    448.00000000</i>
   <i type="int" name="TURBO">     0</i>
   <i type="int" name="IRESTART">     0</i>
   <i type="int" name="NREBOOT">     0</i>
   <i type="int" name="NMIN">     0</i>
   <i name="EREF">      0.00000000</i>
   <separator name="electronic smearing" >
    <i type="int" name="ISMEAR">     0</i>
    <i name="SIGMA">      0.01000000</i>
    <i name="KSPACING">      0.50000000</i>
    <i type="logical" name="KGAMMA"> T  </i>
   </separator>
   <separator name="electronic projectors" >
    <i type="logical" name="LREAL"> F  </i>
    <v name="ROPT">      0.00000000      0.00000000</v>
    <i type="int" name="LMAXPAW">  -100</i>
    <i type="int" name="LMAXMIX">     2</i>
    <i type="logical" name="NLSPLINE"> F  </i>
   </separator>
   <separator name="electronic startup" >
    <i type="int" name="ISTART">     0</i>
    <i type="int" name="ICHARG">     2</i>
    <i type="int" name="INIWAV">     1</i>
   </separator>
   <separator name="electronic spin" >
    <i type="int" name="ISPIN">     1</i>
    <i type="logical" name="LNONCOLLINEAR"> F  </i>
    <v name="MAGMOM">      1.00000000      1.00000000      1.00000000      1.00000000      1.00000000      1.00000000      1.00000000      1.00000000      1.00000000      1.00000000      1.00000000      1.00000000      1.00000000      1.00000000      1.00000000      1.00000000      1.00000000      1.00000000      1.00000000      1.00000000
      1.00000000      1.00000000      1.00000000      1.00000000      1.00000000      1.00000000      1.00000000      1.00000000      1.00000000      1.00000000      1.00000000      1.00000000      1.00000000      1.00000000      1.00000000      1.00000000      1.00000000      1.00000000      1.00000000      1.00000000
      1.00000000      1.00000000      1.00000000      1.00000000      1.00000000      1.00000000      1.00000000      1.00000000      1.00000000      1.00000000      1.00000000      1.00000000      1.00000000      1.00000000      1.00000000      1.00000000      1.00000000      1.00000000      1.00000000      1.00000000
      1.00000000      1.00000000      1.00000000      1.00000000</v>
    <i name="NUPDOWN">     -1.00000000</i>
    <i type="logical" name="LSORBIT"> F  </i>
    <v name="SAXIS">      0.00000000      0.00000000      1.00000000</v>
    <i type="logical" name="LSPIRAL"> F  </i>
    <v name="QSPIRAL">      0.00000000      0.00000000      0.00000000</v>
    <i type="logical" name="LZEROZ"> F  </i>
   </separator>
   <separator name="electronic exchange-correlation" >
    <i type="logical" name="LASPH"> F  </i>
    <i type="logical" name="LMETAGGA"> F  </i>
   </separator>
   <separator name="electronic convergence" >
    <i type="int" name="NELM">    60</i>
    <i type="int" name="NELMDL">    -5</i>
    <i type="int" name="NELMIN">     5</i>
    <i name="ENINI">    525.10770000</i>
    <separator name="electronic convergence detail" >
     <i type="logical" name="LDIAG"> T  </i>
     <i type="logical" name="LSUBROT"> F  </i>
     <i name="WEIMIN">      0.00000000</i>
     <i name="EBREAK">      0.00000000</i>
     <i name="DEPER">      0.30000000</i>
     <i type="int" name="NRMM">     4</i>
     <i name="TIME">      0.40000000</i>
    </separator>
   </separator>
   <separator name="electronic mixer" >
    <i name="AMIX">      0.40000000</i>
    <i name="BMIX">      1.00000000</i>
    <i name="AMIN">      0.10000000</i>
    <i name="AMIX_MAG">      1.60000000</i>
    <i name="BMIX_MAG">      1.00000000</i>
    <separator name="electronic mixer details" >
     <i type="int" name="IMIX">     4</i>
     <i type="int" name="MAXMIX">   -45</i>
     <i name="WC">    100.00000000</i>
     <i type="int" name="INIMIX">     1</i>
     <i type="int" name="MIXPRE">     1</i>
     <i type="int" name="MREMOVE">     5</i>
    </separator>
   </separator>
   <separator name="electronic dipolcorrection" >
    <i type="logical" name="LDIPOL"> F  </i>
    <i type="logical" name="LMONO"> F  </i>
    <i type="int" name="IDIPOL">     0</i>
    <i name="EPSILON">      1.00000000</i>
    <v name="DIPOL">   -100.00000000   -100.00000000   -100.00000000</v>
    <i name="EFIELD">      0.00000000</i>
   </separator>
  </separator>
  <separator name="grids" >
   <i type="int" name="NGX">    80</i>
   <i type="int" name="NGY">    80</i>
   <i type="int" name="NGZ">    80</i>
   <i type="int" name="NGXF">   160</i>
   <i type="int" name="NGYF">   160</i>
   <i type="int" name="NGZF">   160</i>
   <i type="logical" name="ADDGRID"> T  </i>
  </separator>
  <separator name="ionic" >
   <i type="int" name="NSW">     0</i>
   <i type="int" name="IBRION">    -1</i>
   <i type="int" name="ISIF">     2</i>
   <i name="PSTRESS">      0.00000000</i>
   <i name="EDIFFG">      0.00000010</i>
   <i type="int" name="NFREE">     0</i>
   <i name="POTIM">      0.50000000</i>
   <i name="SMASS">     -3.00000000</i>
   <i name="SCALEE">      1.00000000</i>
  </separator>
  <separator name="ionic md" >
   <i name="TEBEG">      0.00010000</i>
   <i name="TEEND">      0.00010000</i>
   <i type="int" name="NBLOCK">     1</i>
   <i type="int" name="KBLOCK">     1</i>
   <i type="int" name="NPACO">   256</i>
   <i name="APACO">     16.00000000</i>
  </separator>
  <separator name="symmetry" >
   <i type="int" name="ISYM">     2</i>
   <i name="SYMPREC">      0.00001000</i>
  </separator>
  <separator name="dos" >
   <i type="logical" name="LORBIT"> F  </i>
   <v name="RWIGS">     -1.00000000     -1.00000000</v>
   <i type="int" name="NEDOS">   301</i>
   <i name="EMIN">     10.00000000</i>
   <i name="EMAX">    -10.00000000</i>
   <i name="EFERMI">      0.00000000</i>
  </separator>
  <separator name="writing" >
   <i type="int" name="NWRITE">     2</i>
   <i type="logical" name="LWAVE"> F  </i>
   <i type="logical" name="LCHARG"> F  </i>
   <i type="logical" name="LPARD"> F  </i>
   <i type="logical" name="LVTOT"> F  </i>
   <i type="logical" name="LVHAR"> F  </i>
   <i type="logical" name="LELF"> F  </i>
   <i type="logical" name="LOPTICS"> F  </i>
   <v name="STM">      0.00000000      0.00000000      0.00000000      0.00000000      0.00000000      0.00000000      0.00000000</v>
  </separator>
  <separator name="performance" >
   <i type="int" name="NPAR">     4</i>
   <i type="int" name="NSIM">     4</i>
   <i type="int" name="NBLK">    -1</i>
   <i type="logical" name="LPLANE"> T  </i>
   <i type="logical" name="LSCALAPACK"> T  </i>
   <i type="logical" name="LSCAAWARE"> F  </i>
   <i type="logical" name="LSCALU"> F  </i>
   <i type="logical" name="LASYNC"> F  </i>
   <i type="logical" name="LORBITALREAL"> F  </i>
  </separator>
  <separator name="miscellaneous" >
   <i type="int" name="IDIOT">     3</i>
   <i type="logical" name="LMUSIC"> F  </i>
   <v name="POMASS">     24.30500000     32.06600000</v>
   <v name="DARWINR">      0.00000000      0.00000000</v>
   <v name="DARWINV">      1.00000000      1.00000000</v>
   <i type="logical" name="LCORR"> T  </i>
  </separator>
  <i type="logical" name="GGA_COMPAT"> T  </i>
  <i type="logical" name="LBERRY"> F  </i>
  <i type="int" name="ICORELEVEL">     0</i>
  <i type="logical" name="LDAU"> F  </i>
  <i type="int" name="I_CONSTRAINED_M">     0</i>
  <separator name="electronic exchange-correlation" >
   <i type="string" name="GGA">PS</i>
   <i type="int" name="VOSKOWN">     0</i>
   <i type="logical" name="LHFCALC"> F  </i>
   <i type="string" name="PRECFOCK"></i>
   <i type="logical" name="LSYMGRAD"> F  </i>
   <i type="logical" name="LHFONE"> F  </i>
   <i type="logical" name="LRHFCALC"> F  </i>
   <i type="logical" name="LTHOMAS"> F  </i>
   <i type="logical" name="LMODELHF"> F  </i>
   <i name="ENCUT4O">     -1.00000000</i>
   <i type="int" name="EXXOEP">     0</i>
   <i type="int" name="FOURORBIT">     0</i>
   <i name="AEXX">      0.00000000</i>
   <i name="HFALPHA">      0.00000000</i>
   <i name="MCALPHA">      0.00000000</i>
   <i name="ALDAX">      1.00000000</i>
   <i name="AGGAX">      1.00000000</i>
   <i name="ALDAC">      1.00000000</i>
   <i name="AGGAC">      1.00000000</i>
   <i type="int" name="NKREDX">     1</i>
   <i type="int" name="NKREDY">     1</i>
   <i type="int" name="NKREDZ">     1</i>
   <i type="logical" name="SHIFTRED"> F  </i>
   <i type="logical" name="ODDONLY"> F  </i>
   <i type="logical" name="EVENONLY"> F  </i>
   <i type="int" name="LMAXFOCK">     0</i>
   <i type="int" name="NMAXFOCKAE">     0</i>
   <i type="logical" name="LFOCKAEDFT"> F  </i>
   <i name="HFSCREEN">      0.00000000</i>
   <i name="HFSCREENC">      0.00000000</i>
   <i type="int" name="NBANDSGWLOW">     0</i>
  </separator>
  <separator name="vdW DFT" >
   <i type="logical" name="LUSE_VDW"> F  </i>
   <i name="Zab_VDW">     -0.84910000</i>
   <i name="PARAM1">      0.12340000</i>
   <i name="PARAM2">      1.00000000</i>
   <i name="PARAM3">      0.00000000</i>
  </separator>
  <separator name="model GW" >
   <i type="int" name="MODEL_GW">     0</i>
   <i name="MODEL_EPS0">     10.32595913</i>
   <i name="MODEL_ALPHA">      1.00000000</i>
  </separator>
  <separator name="linear response parameters" >
   <i type="logical" name="LEPSILON"> F  </i>
   <i type="logical" name="LRPA"> F  </i>
   <i type="logical" name="LNABLA"> F  </i>
   <i type="logical" name="LVEL"> F  </i>
   <i type="int" name="KINTER">     0</i>
   <i name="CSHIFT">      0.10000000</i>
   <i name="OMEGAMAX">     -1.00000000</i>
   <i name="DEG_THRESHOLD">      0.00200000</i>
  </separator>
  <separator name="orbital magnetization" >
   <i type="logical" name="NUCIND"> F  </i>
   <v name="MAGPOS">      0.00000000      0.00000000      0.00000000</v>
   <i type="logical" name="LNICSALL"> T  </i>
   <i type="logical" name="ORBITALMAG"> F  </i>
   <i type="logical" name="LMAGBLOCH"> F  </i>
   <i type="logical" name="LCHIMAG"> F  </i>
   <i type="logical" name="LGAUGE"> T  </i>
   <i type="int" name="MAGATOM">     0</i>
   <v name="MAGDIPOL">      0.00000000      0.00000000      0.00000000</v>
   <v name="AVECCONST">      0.00000000      0.00000000      0.00000000</v>
  </separator>
  <separator name="response functions" >
   <i type="logical" name="LADDER"> F  </i>
   <i type="logical" name="LFXC"> F  </i>
   <i type="logical" name="LHARTREE"> T  </i>
   <i type="int" name="IBSE">     0</i>
   <i type="logical" name="LTCTE"> F  </i>
   <i type="logical" name="LTETE"> F  </i>
   <i type="logical" name="LTRIPLET"> F  </i>
   <i type="logical" name="LFXCEPS"> F  </i>
   <i type="logical" name="LFXHEG"> F  </i>
   <i type="logical" name="L2ORDER"> F  </i>
   <i type="logical" name="LUSEW"> F  </i>
   <i name="ENCUTGW">     -2.00000000</i>
   <i name="ENCUTGWSOFT">     -2.00000000</i>
   <i name="ENCUTLF">     -1.00000000</i>
   <i type="int" name="LMAXMP2">    -1</i>
   <i name="SCISSOR">      0.00000000</i>
   <i type="int" name="NOMEGA">     0</i>
   <i type="int" name="NOMEGAR">     0</i>
   <i type="int" name="NBANDSGW">    -1</i>
   <i type="int" name="NBANDSO">    -1</i>
   <i type="int" name="NBANDSV">    -1</i>
   <i type="int" name="NELM">     1</i>
   <i type="int" name="DIM">     3</i>
   <i type="int" name="ANTIRES">     0</i>
   <i name="OMEGAMAX">    -30.00000000</i>
   <i name="OMEGAMIN">    -30.00000000</i>
   <i name="OMEGATL">   -200.00000000</i>
   <i type="int" name="OMEGAGRID">     0</i>
   <i name="CSHIFT">     -0.10000000</i>
   <i type="logical" name="SELFENERGY"> F  </i>
   <i type="logical" name="LSPECTRAL"> F  </i>
   <i type="logical" name="ODDONLYGW"> F  </i>
   <i type="logical" name="EVENONLYGW"> F  </i>
   <i type="int" name="NKREDLFX">     1</i>
   <i type="int" name="NKREDLFY">     1</i>
   <i type="int" name="NKREDLFZ">     1</i>
   <i type="int" name="MAXMEM">  1800</i>
   <i type="int" name="TELESCOPE">     0</i>
   <i type="int" name="TAUPAR">     1</i>
  </separator>
  <separator name="External order field" >
   <i name="OFIELD_KAPPA">      0.00000000</i>
   <v name="OFIELD_K">      0.00000000      0.00000000      0.00000000</v>
   <i name="OFIELD_Q6_NEAR">      0.00000000</i>
   <i name="OFIELD_Q6_FAR">      0.00000000</i>
   <i name="OFIELD_A">      0.00000000</i>
  </separator>
 </parameters>
 <atominfo>
  <atoms>      64 </atoms>
  <types>       2 </types>
  <array name="atoms" >
   <dimension dim="1">ion</dimension>
   <field type="string">element</field>
   <field type="int">atomtype</field>
   <set>
    <rc><c>Mg</c><c>   1</c></rc>
    <rc><c>Mg</c><c>   1</c></rc>
    <rc><c>Mg</c><c>   1</c></rc>
    <rc><c>Mg</c><c>   1</c></rc>
    <rc><c>Mg</c><c>   1</c></rc>
    <rc><c>Mg</c><c>   1</c></rc>
    <rc><c>Mg</c><c>   1</c></rc>
    <rc><c>Mg</c><c>   1</c></rc>
    <rc><c>Mg</c><c>   1</c></rc>
    <rc><c>Mg</c><c>   1</c></rc>
    <rc><c>Mg</c><c>   1</c></rc>
    <rc><c>Mg</c><c>   1</c></rc>
    <rc><c>Mg</c><c>   1</c></rc>
    <rc><c>Mg</c><c>   1</c></rc>
    <rc><c>Mg</c><c>   1</c></rc>
    <rc><c>Mg</c><c>   1</c></rc>
    <rc><c>Mg</c><c>   1</c></rc>
    <rc><c>Mg</c><c>   1</c></rc>
    <rc><c>Mg</c><c>   1</c></rc>
    <rc><c>Mg</c><c>   1</c></rc>
    <rc><c>Mg</c><c>   1</c></rc>
    <rc><c>Mg</c><c>   1</c></rc>
    <rc><c>Mg</c><c>   1</c></rc>
    <rc><c>Mg</c><c>   1</c></rc>
    <rc><c>Mg</c><c>   1</c></rc>
    <rc><c>Mg</c><c>   1</c></rc>
    <rc><c>Mg</c><c>   1</c></rc>
    <rc><c>Mg</c><c>   1</c></rc>
    <rc><c>Mg</c><c>   1</c></rc>
    <rc><c>Mg</c><c>   1</c></rc>
    <rc><c>Mg</c><c>   1</c></rc>
    <rc><c>Mg</c><c>   1</c></rc>
    <rc><c>S </c><c>   2</c></rc>
    <rc><c>S </c><c>   2</c></rc>
    <rc><c>S </c><c>   2</c></rc>
    <rc><c>S </c><c>   2</c></rc>
    <rc><c>S </c><c>   2</c></rc>
    <rc><c>S </c><c>   2</c></rc>
    <rc><c>S </c><c>   2</c></rc>
    <rc><c>S </c><c>   2</c></rc>
    <rc><c>S </c><c>   2</c></rc>
    <rc><c>S </c><c>   2</c></rc>
    <rc><c>S </c><c>   2</c></rc>
    <rc><c>S </c><c>   2</c></rc>
    <rc><c>S </c><c>   2</c></rc>
    <rc><c>S </c><c>   2</c></rc>
    <rc><c>S </c><c>   2</c></rc>
    <rc><c>S </c><c>   2</c></rc>
    <rc><c>S </c><c>   2</c></rc>
    <rc><c>S </c><c>   2</c></rc>
    <rc><c>S </c><c>   2</c></rc>
    <rc><c>S </c><c>   2</c></rc>
    <rc><c>S </c><c>   2</c></rc>
    <rc><c>S </c><c>   2</c></rc>
    <rc><c>S </c><c>   2</c></rc>
    <rc><c>S </c><c>   2</c></rc>
    <rc><c>S </c><c>   2</c></rc>
    <rc><c>S </c><c>   2</c></rc>
    <rc><c>S </c><c>   2</c></rc>
    <rc><c>S </c><c>   2</c></rc>
    <rc><c>S </c><c>   2</c></rc>
    <rc><c>S </c><c>   2</c></rc>
    <rc><c>S </c><c>   2</c></rc>
    <rc><c>S </c><c>   2</c></rc>
   </set>
  </array>
  <array name="atomtypes" >
   <dimension dim="1">type</dimension>
   <field type="int">atomspertype</field>
   <field type="string">element</field>
   <field>mass</field>
   <field>valence</field>
   <field type="string">pseudopotential</field>
   <set>
    <rc><c>  32</c><c>Mg</c><c>     24.30500000</c><c>      8.00000000</c><c>  PAW_PBE Mg_pv 13Apr2007               </c></rc>
    <rc><c>  32</c><c>S </c><c>     32.06600000</c><c>      6.00000000</c><c>  PAW_PBE S 06Sep2000                   </c></rc>
   </set>
  </array>
 </atominfo>
 <structure name="initialpos" >
  <crystal>
   <varray name="basis" >
    <v>      10.32729006       0.00000000       0.00000000 </v>
    <v>       0.00000000      10.32729006       0.00000000 </v>
    <v>       0.00000000       0.00000000      10.32729006 </v>
   </varray>
   <i name="volume">   1101.43564041 </i>
   <varray name="rec_basis" >
    <v>       0.09683082       0.00000000       0.00000000 </v>
    <v>       0.00000000       0.09683082       0.00000000 </v>
    <v>       0.00000000       0.00000000       0.09683082 </v>
   </varray>
  </crystal>
  <varray name="positions" >
   <v>       0.00000000       0.00000000       0.00000000 </v>
   <v>       0.50000000       0.00000000       0.00000000 </v>
   <v>       0.00000000       0.50000000       0.00000000 </v>
   <v>       0.50000000       0.50000000       0.00000000 </v>
   <v>       0.00000000       0.00000000       0.50000000 </v>
   <v>       0.50000000       0.00000000       0.50000000 </v>
   <v>       0.00000000       0.50000000       0.50000000 </v>
   <v>       0.50000000       0.50000000       0.50000000 </v>
   <v>       0.00000000       0.25000000       0.25000000 </v>
   <v>       0.50000000       0.25000000       0.25000000 </v>
   <v>       0.00000000       0.75000000       0.25000000 </v>
   <v>       0.50000000       0.75000000       0.25000000 </v>
   <v>       0.00000000       0.25000000       0.75000000 </v>
   <v>       0.50000000       0.25000000       0.75000000 </v>
   <v>       0.00000000       0.75000000       0.75000000 </v>
   <v>       0.50000000       0.75000000       0.75000000 </v>
   <v>       0.25000000       0.00000000       0.25000000 </v>
   <v>       0.75000000       0.00000000       0.25000000 </v>
   <v>       0.25000000       0.50000000       0.25000000 </v>
   <v>       0.75000000       0.50000000       0.25000000 </v>
   <v>       0.25000000       0.00000000       0.75000000 </v>
   <v>       0.75000000       0.00000000       0.75000000 </v>
   <v>       0.25000000       0.50000000       0.75000000 </v>
   <v>       0.75000000       0.50000000       0.75000000 </v>
   <v>       0.25000000       0.25000000       0.00000000 </v>
   <v>       0.75000000       0.25000000       0.00000000 </v>
   <v>       0.25000000       0.75000000       0.00000000 </v>
   <v>       0.75000000       0.75000000       0.00000000 </v>
   <v>       0.25000000       0.25000000       0.50000000 </v>
   <v>       0.75000000       0.25000000       0.50000000 </v>
   <v>       0.25000000       0.75000000       0.50000000 </v>
   <v>       0.75000000       0.75000000       0.50000000 </v>
   <v>       0.25096831       0.00000000       0.00000000 </v>
   <v>       0.75000000       0.00000000       0.00000000 </v>
   <v>       0.25000000       0.50000000       0.00000000 </v>
   <v>       0.75000000       0.50000000       0.00000000 </v>
   <v>       0.25000000       0.00000000       0.50000000 </v>
   <v>       0.75000000       0.00000000       0.50000000 </v>
   <v>       0.25000000       0.50000000       0.50000000 </v>
   <v>       0.75000000       0.50000000       0.50000000 </v>
   <v>       0.25000000       0.25000000       0.25000000 </v>
   <v>       0.75000000       0.25000000       0.25000000 </v>
   <v>       0.25000000       0.75000000       0.25000000 </v>
   <v>       0.75000000       0.75000000       0.25000000 </v>
   <v>       0.25000000       0.25000000       0.75000000 </v>
   <v>       0.75000000       0.25000000       0.75000000 </v>
   <v>       0.25000000       0.75000000       0.75000000 </v>
   <v>       0.75000000       0.75000000       0.75000000 </v>
   <v>       0.00000000       0.00000000       0.25000000 </v>
   <v>       0.50000000       0.00000000       0.25000000 </v>
   <v>       0.00000000       0.50000000       0.25000000 </v>
   <v>       0.50000000       0.50000000       0.25000000 </v>
   <v>       0.00000000       0.00000000       0.75000000 </v>
   <v>       0.50000000       0.00000000       0.75000000 </v>
   <v>       0.00000000       0.50000000       0.75000000 </v>
   <v>       0.50000000       0.50000000       0.75000000 </v>
   <v>       0.00000000       0.25000000       0.00000000 </v>
   <v>       0.50000000       0.25000000       0.00000000 </v>
   <v>       0.00000000       0.75000000       0.00000000 </v>
   <v>       0.50000000       0.75000000       0.00000000 </v>
   <v>       0.00000000       0.25000000       0.50000000 </v>
   <v>       0.50000000       0.25000000       0.50000000 </v>
   <v>       0.00000000       0.75000000       0.50000000 </v>
   <v>       0.50000000       0.75000000       0.50000000 </v>
  </varray>
 </structure>
 <calculation>
  <scstep>
   <time name="dav">   24.27   24.29</time>
   <time name="total">   24.66   24.69</time>
   <energy>
    <i name="alphaZ">   1233.74239958 </i>
    <i name="ewald"> -25124.97201967 </i>
    <i name="hartreedc">  -9278.22895102 </i>
    <i name="XCdc">   1276.34792120 </i>
    <i name="pawpsdc">  27701.73694044 </i>
    <i name="pawaedc"> -31358.41014717 </i>
    <i name="eentropy">     -0.00173022 </i>
    <i name="bandstr">  -2707.78488042 </i>
    <i name="atom">  42573.64344421 </i>
    <i name="e_fr_energy">   4316.07297692 </i>
    <i name="e_wo_entrp">   4316.07470715 </i>
    <i name="e_0_energy">   4316.07384204 </i>
   </energy>
  </scstep>
  <scstep>
   <time name="dav">   24.15   24.15</time>
   <time name="total">   24.15   24.15</time>
   <energy>
    <i name="e_fr_energy">    100.68541222 </i>
    <i name="e_wo_entrp">    100.68541222 </i>
    <i name="e_0_energy">    100.68541222 </i>
   </energy>
  </scstep>
  <scstep>
   <time name="dav">   24.27   24.26</time>
   <time name="total">   24.27   24.27</time>
   <energy>
    <i name="e_fr_energy">   -282.00091388 </i>
    <i name="e_wo_entrp">   -282.00091388 </i>
    <i name="e_0_energy">   -282.00091388 </i>
   </energy>
  </scstep>
  <scstep>
   <time name="dav">   23.04   23.04</time>
   <time name="total">   23.05   23.04</time>
   <energy>
    <i name="e_fr_energy">   -300.65828489 </i>
    <i name="e_wo_entrp">   -300.65828489 </i>
    <i name="e_0_energy">   -300.65828489 </i>
   </energy>
  </scstep>
  <scstep>
   <time name="dav">   24.93   24.93</time>
   <time name="total">   25.94   25.93</time>
   <energy>
    <i name="e_fr_energy">   -301.52921353 </i>
    <i name="e_wo_entrp">   -301.52921353 </i>
    <i name="e_0_energy">   -301.52921353 </i>
   </energy>
  </scstep>
  <scstep>
   <time name="dav">   22.84   22.83</time>
   <time name="total">   24.23   24.23</time>
   <energy>
    <i name="e_fr_energy">   -291.13450470 </i>
    <i name="e_wo_entrp">   -291.13450470 </i>
    <i name="e_0_energy">   -291.13450470 </i>
   </energy>
  </scstep>
  <scstep>
   <time name="dav">   23.61   23.62</time>
   <time name="total">   25.00   25.01</time>
   <energy>
    <i name="e_fr_energy">   -289.87261506 </i>
    <i name="e_wo_entrp">   -289.87261506 </i>
    <i name="e_0_energy">   -289.87261506 </i>
   </energy>
  </scstep>
  <scstep>
   <time name="dav">   22.51   22.51</time>
   <time name="total">   23.91   23.91</time>
   <energy>
    <i name="e_fr_energy">   -289.79272885 </i>
    <i name="e_wo_entrp">   -289.79272885 </i>
    <i name="e_0_energy">   -289.79272885 </i>
   </energy>
  </scstep>
  <scstep>
   <time name="dav">   23.15   23.14</time>
   <time name="total">   24.56   24.55</time>
   <energy>
    <i name="e_fr_energy">   -289.78803627 </i>
    <i name="e_wo_entrp">   -289.78803627 </i>
    <i name="e_0_energy">   -289.78803627 </i>
   </energy>
  </scstep>
  <scstep>
   <time name="dav">   23.61   23.62</time>
   <time name="total">   25.00   25.02</time>
   <energy>
    <i name="e_fr_energy">   -289.78847463 </i>
    <i name="e_wo_entrp">   -289.78847463 </i>
    <i name="e_0_energy">   -289.78847463 </i>
   </energy>
  </scstep>
  <scstep>
   <time name="dav">   22.46   22.46</time>
   <time name="total">   23.86   23.87</time>
   <energy>
    <i name="e_fr_energy">   -289.78823724 </i>
    <i name="e_wo_entrp">   -289.78823724 </i>
    <i name="e_0_energy">   -289.78823724 </i>
   </energy>
  </scstep>
  <scstep>
   <time name="dav">   23.55   23.54</time>
   <time name="total">   24.94   24.94</time>
   <energy>
    <i name="e_fr_energy">   -289.78823982 </i>
    <i name="e_wo_entrp">   -289.78823982 </i>
    <i name="e_0_energy">   -289.78823982 </i>
   </energy>
  </scstep>
  <scstep>
   <time name="dav">   22.60   22.61</time>
   <time name="total">   23.99   24.00</time>
   <energy>
    <i name="e_fr_energy">   -289.78824280 </i>
    <i name="e_wo_entrp">   -289.78824280 </i>
    <i name="e_0_energy">   -289.78824280 </i>
   </energy>
  </scstep>
  <scstep>
   <time name="dav">   22.79   22.80</time>
   <time name="total">   24.18   24.19</time>
   <energy>
    <i name="e_fr_energy">   -289.78824256 </i>
    <i name="e_wo_entrp">   -289.78824256 </i>
    <i name="e_0_energy">   -289.78824256 </i>
   </energy>
  </scstep>
  <scstep>
   <time name="dav">   20.43   20.44</time>
   <time name="total">   21.82   21.83</time>
   <energy>
    <i name="e_fr_energy">   -289.78824228 </i>
    <i name="e_wo_entrp">   -289.78824228 </i>
    <i name="e_0_energy">   -289.78824228 </i>
   </energy>
  </scstep>
  <scstep>
   <time name="dav">   19.95   19.96</time>
   <time name="total">   21.35   21.36</time>
   <energy>
    <i name="e_fr_energy">   -289.78824229 </i>
    <i name="e_wo_entrp">   -289.78824229 </i>
    <i name="e_0_energy">   -289.78824229 </i>
   </energy>
  </scstep>
  <scstep>
   <time name="dav">   17.91   17.92</time>
   <time name="total">   19.31   19.31</time>
   <energy>
    <i name="e_fr_energy">   -289.78824215 </i>
    <i name="e_wo_entrp">   -289.78824215 </i>
    <i name="e_0_energy">   -289.78824215 </i>
   </energy>
  </scstep>
  <scstep>
   <time name="dav">   15.06   15.07</time>
   <time name="total">   16.47   16.48</time>
   <energy>
    <i name="e_fr_energy">   -289.78824220 </i>
    <i name="e_wo_entrp">   -289.78824220 </i>
    <i name="e_0_energy">   -289.78824220 </i>
   </energy>
  </scstep>
  <scstep>
   <time name="dav">   15.07   15.08</time>
   <time name="total">   16.48   16.49</time>
   <energy>
    <i name="e_fr_energy">   -289.78824227 </i>
    <i name="e_wo_entrp">   -289.78824227 </i>
    <i name="e_0_energy">   -289.78824227 </i>
   </energy>
  </scstep>
  <scstep>
   <time name="dav">   14.84   14.85</time>
   <time name="total">   16.23   16.25</time>
   <energy>
    <i name="e_fr_energy">   -289.78824233 </i>
    <i name="e_wo_entrp">   -289.78824233 </i>
    <i name="e_0_energy">   -289.78824233 </i>
   </energy>
  </scstep>
  <scstep>
   <time name="dav">   14.88   14.89</time>
   <time name="total">   16.28   16.29</time>
   <energy>
    <i name="e_fr_energy">   -289.78824228 </i>
    <i name="e_wo_entrp">   -289.78824228 </i>
    <i name="e_0_energy">   -289.78824228 </i>
   </energy>
  </scstep>
  <scstep>
   <time name="dav">   14.80   14.81</time>
   <time name="total">   16.19   16.20</time>
   <energy>
    <i name="e_fr_energy">   -289.78824226 </i>
    <i name="e_wo_entrp">   -289.78824226 </i>
    <i name="e_0_energy">   -289.78824226 </i>
   </energy>
  </scstep>
  <scstep>
   <time name="dav">   14.90   14.90</time>
   <time name="total">   15.30   15.29</time>
   <energy>
    <i name="alphaZ">   1233.74239958 </i>
    <i name="ewald"> -25124.97201967 </i>
    <i name="hartreedc">  -9207.06834694 </i>
    <i name="XCdc">   1292.51292107 </i>
    <i name="pawpsdc">  37650.83780269 </i>
    <i name="pawaedc"> -41275.65925497 </i>
    <i name="eentropy">      0.00000000 </i>
    <i name="bandstr">  -7432.82518824 </i>
    <i name="atom">  42573.64344421 </i>
    <i name="e_fr_energy">   -289.78824227 </i>
    <i name="e_wo_entrp">   -289.78824227 </i>
    <i name="e_0_energy">   -289.78824227 </i>
   </energy>
  </scstep>
  <structure>
   <crystal>
    <varray name="basis" >
     <v>      10.32729006       0.00000000       0.00000000 </v>
     <v>       0.00000000      10.32729006       0.00000000 </v>
     <v>       0.00000000       0.00000000      10.32729006 </v>
    </varray>
    <i name="volume">   1101.43564041 </i>
    <varray name="rec_basis" >
     <v>       0.09683082       0.00000000       0.00000000 </v>
     <v>       0.00000000       0.09683082       0.00000000 </v>
     <v>       0.00000000       0.00000000       0.09683082 </v>
    </varray>
   </crystal>
   <varray name="positions" >
    <v>       0.00000000       0.00000000       0.00000000 </v>
    <v>       0.50000000       0.00000000       0.00000000 </v>
    <v>       0.00000000       0.50000000       0.00000000 </v>
    <v>       0.50000000       0.50000000       0.00000000 </v>
    <v>       0.00000000       0.00000000       0.50000000 </v>
    <v>       0.50000000       0.00000000       0.50000000 </v>
    <v>       0.00000000       0.50000000       0.50000000 </v>
    <v>       0.50000000       0.50000000       0.50000000 </v>
    <v>       0.00000000       0.25000000       0.25000000 </v>
    <v>       0.50000000       0.25000000       0.25000000 </v>
    <v>       0.00000000       0.75000000       0.25000000 </v>
    <v>       0.50000000       0.75000000       0.25000000 </v>
    <v>       0.00000000       0.25000000       0.75000000 </v>
    <v>       0.50000000       0.25000000       0.75000000 </v>
    <v>       0.00000000       0.75000000       0.75000000 </v>
    <v>       0.50000000       0.75000000       0.75000000 </v>
    <v>       0.25000000       0.00000000       0.25000000 </v>
    <v>       0.75000000       0.00000000       0.25000000 </v>
    <v>       0.25000000       0.50000000       0.25000000 </v>
    <v>       0.75000000       0.50000000       0.25000000 </v>
    <v>       0.25000000       0.00000000       0.75000000 </v>
    <v>       0.75000000       0.00000000       0.75000000 </v>
    <v>       0.25000000       0.50000000       0.75000000 </v>
    <v>       0.75000000       0.50000000       0.75000000 </v>
    <v>       0.25000000       0.25000000       0.00000000 </v>
    <v>       0.75000000       0.25000000       0.00000000 </v>
    <v>       0.25000000       0.75000000       0.00000000 </v>
    <v>       0.75000000       0.75000000       0.00000000 </v>
    <v>       0.25000000       0.25000000       0.50000000 </v>
    <v>       0.75000000       0.25000000       0.50000000 </v>
    <v>       0.25000000       0.75000000       0.50000000 </v>
    <v>       0.75000000       0.75000000       0.50000000 </v>
    <v>       0.25096831       0.00000000       0.00000000 </v>
    <v>       0.75000000       0.00000000       0.00000000 </v>
    <v>       0.25000000       0.50000000       0.00000000 </v>
    <v>       0.75000000       0.50000000       0.00000000 </v>
    <v>       0.25000000       0.00000000       0.50000000 </v>
    <v>       0.75000000       0.00000000       0.50000000 </v>
    <v>       0.25000000       0.50000000       0.50000000 </v>
    <v>       0.75000000       0.50000000       0.50000000 </v>
    <v>       0.25000000       0.25000000       0.25000000 </v>
    <v>       0.75000000       0.25000000       0.25000000 </v>
    <v>       0.25000000       0.75000000       0.25000000 </v>
    <v>       0.75000000       0.75000000       0.25000000 </v>
    <v>       0.25000000       0.25000000       0.75000000 </v>
    <v>       0.75000000       0.25000000       0.75000000 </v>
    <v>       0.25000000       0.75000000       0.75000000 </v>
    <v>       0.75000000       0.75000000       0.75000000 </v>
    <v>       0.00000000       0.00000000       0.25000000 </v>
    <v>       0.50000000       0.00000000       0.25000000 </v>
    <v>       0.00000000       0.50000000       0.25000000 </v>
    <v>       0.50000000       0.50000000       0.25000000 </v>
    <v>       0.00000000       0.00000000       0.75000000 </v>
    <v>       0.50000000       0.00000000       0.75000000 </v>
    <v>       0.00000000       0.50000000       0.75000000 </v>
    <v>       0.50000000       0.50000000       0.75000000 </v>
    <v>       0.00000000       0.25000000       0.00000000 </v>
    <v>       0.50000000       0.25000000       0.00000000 </v>
    <v>       0.00000000       0.75000000       0.00000000 </v>
    <v>       0.50000000       0.75000000       0.00000000 </v>
    <v>       0.00000000       0.25000000       0.50000000 </v>
    <v>       0.50000000       0.25000000       0.50000000 </v>
    <v>       0.00000000       0.75000000       0.50000000 </v>
    <v>       0.50000000       0.75000000       0.50000000 </v>
   </varray>
  </structure>
  <varray name="forces" >
   <v>       0.01425694       0.00000000       0.00000000 </v>
   <v>       0.01546658       0.00000000       0.00000000 </v>
   <v>       0.00047135       0.00000000       0.00000000 </v>
   <v>       0.00047420       0.00000000       0.00000000 </v>
   <v>       0.00047135       0.00000000       0.00000000 </v>
   <v>       0.00047420       0.00000000       0.00000000 </v>
   <v>      -0.00000638       0.00000000       0.00000000 </v>
   <v>      -0.00000578       0.00000000       0.00000000 </v>
   <v>      -0.00001640       0.00096264       0.00096264 </v>
   <v>      -0.00001391      -0.00096190      -0.00096190 </v>
   <v>      -0.00001640      -0.00096264       0.00096264 </v>
   <v>      -0.00001391       0.00096190      -0.00096190 </v>
   <v>      -0.00001640       0.00096264      -0.00096264 </v>
   <v>      -0.00001391      -0.00096190       0.00096190 </v>
   <v>      -0.00001640      -0.00096264      -0.00096264 </v>
   <v>      -0.00001391       0.00096190       0.00096190 </v>
   <v>       0.00292576       0.00000000      -0.00003783 </v>
   <v>      -0.00266226       0.00000000       0.00000042 </v>
   <v>       0.00036529       0.00000000      -0.00000043 </v>
   <v>      -0.00041924       0.00000000      -0.00000057 </v>
   <v>       0.00292576       0.00000000       0.00003783 </v>
   <v>      -0.00266226       0.00000000      -0.00000042 </v>
   <v>       0.00036529       0.00000000       0.00000043 </v>
   <v>      -0.00041924       0.00000000       0.00000057 </v>
   <v>       0.00292576      -0.00003783       0.00000000 </v>
   <v>      -0.00266226       0.00000042       0.00000000 </v>
   <v>       0.00292576       0.00003783       0.00000000 </v>
   <v>      -0.00266226      -0.00000042       0.00000000 </v>
   <v>       0.00036529      -0.00000043       0.00000000 </v>
   <v>      -0.00041924      -0.00000057       0.00000000 </v>
   <v>       0.00036529       0.00000043       0.00000000 </v>
   <v>      -0.00041924       0.00000057       0.00000000 </v>
   <v>      -0.06700441       0.00000000       0.00000000 </v>
   <v>       0.00223168       0.00000000       0.00000000 </v>
   <v>      -0.00124469       0.00000000       0.00000000 </v>
   <v>       0.00292261       0.00000000       0.00000000 </v>
   <v>      -0.00124469       0.00000000       0.00000000 </v>
   <v>       0.00292261       0.00000000       0.00000000 </v>
   <v>      -0.00049243       0.00000000       0.00000000 </v>
   <v>       0.00048286       0.00000000       0.00000000 </v>
   <v>      -0.00145104      -0.00000345      -0.00000345 </v>
   <v>       0.00109446      -0.00000037      -0.00000037 </v>
   <v>      -0.00145104       0.00000345      -0.00000345 </v>
   <v>       0.00109446       0.00000037      -0.00000037 </v>
   <v>      -0.00145104      -0.00000345       0.00000345 </v>
   <v>       0.00109446      -0.00000037       0.00000037 </v>
   <v>      -0.00145104       0.00000345       0.00000345 </v>
   <v>       0.00109446       0.00000037       0.00000037 </v>
   <v>       0.00386124       0.00000000      -0.00583694 </v>
   <v>       0.00387491       0.00000000       0.00587898 </v>
   <v>      -0.00005075       0.00000000      -0.00054711 </v>
   <v>      -0.00005204       0.00000000       0.00054893 </v>
   <v>       0.00386124       0.00000000       0.00583694 </v>
   <v>       0.00387491       0.00000000      -0.00587898 </v>
   <v>      -0.00005075       0.00000000       0.00054711 </v>
   <v>      -0.00005204       0.00000000      -0.00054893 </v>
   <v>       0.00386124      -0.00583694       0.00000000 </v>
   <v>       0.00387491       0.00587898       0.00000000 </v>
   <v>       0.00386124       0.00583694       0.00000000 </v>
   <v>       0.00387491      -0.00587898       0.00000000 </v>
   <v>      -0.00005075      -0.00054711       0.00000000 </v>
   <v>      -0.00005204       0.00054893       0.00000000 </v>
   <v>      -0.00005075       0.00054711       0.00000000 </v>
   <v>      -0.00005204      -0.00054893       0.00000000 </v>
  </varray>
  <varray name="stress" >
   <v>       8.04435079       0.00000000       0.00000000 </v>
   <v>       0.00000000       8.04041237       0.00000000 </v>
   <v>       0.00000000       0.00000000       8.04041237 </v>
  </varray>
  <energy>
   <i name="e_fr_energy">   -289.78824227 </i>
   <i name="e_wo_entrp">   -289.78824227 </i>
   <i name="e_0_energy">      0.00000000 </i>
  </energy>
  <time name="totalsc">  535.44  535.57</time>
  <eigenvalues>
   <array>
    <dimension dim="1">band</dimension>
    <dimension dim="2">kpoint</dimension>
    <dimension dim="3">spin</dimension>
    <field>eigene</field>
    <field>occ</field>
    <set>
     <set comment="spin 1">
      <set comment="kpoint 1">
       <r>  -37.5397    1.0000 </r>
       <r>  -37.5393    1.0000 </r>
       <r>  -37.5393    1.0000 </r>
       <r>  -37.5339    1.0000 </r>
       <r>  -37.5338    1.0000 </r>
       <r>  -37.5338    1.0000 </r>
       <r>  -37.5336    1.0000 </r>
       <r>  -37.5326    1.0000 </r>
       <r>  -37.5326    1.0000 </r>
       <r>  -37.5326    1.0000 </r>
       <r>  -37.5319    1.0000 </r>
       <r>  -37.5316    1.0000 </r>
       <r>  -37.5316    1.0000 </r>
       <r>  -37.5316    1.0000 </r>
       <r>  -37.5316    1.0000 </r>
       <r>  -37.5315    1.0000 </r>
       <r>  -37.5315    1.0000 </r>
       <r>  -37.5313    1.0000 </r>
       <r>  -37.5313    1.0000 </r>
       <r>  -37.5310    1.0000 </r>
       <r>  -37.5310    1.0000 </r>
       <r>  -37.5309    1.0000 </r>
       <r>  -37.5309    1.0000 </r>
       <r>  -37.5307    1.0000 </r>
       <r>  -37.5307    1.0000 </r>
       <r>  -37.5306    1.0000 </r>
       <r>  -37.5306    1.0000 </r>
       <r>  -37.5305    1.0000 </r>
       <r>  -37.5305    1.0000 </r>
       <r>  -37.5304    1.0000 </r>
       <r>  -37.5303    1.0000 </r>
       <r>  -37.5301    1.0000 </r>
       <r>  -37.5297    1.0000 </r>
       <r>  -37.5297    1.0000 </r>
       <r>  -37.5296    1.0000 </r>
       <r>  -37.5295    1.0000 </r>
       <r>  -37.5294    1.0000 </r>
       <r>  -37.5294    1.0000 </r>
       <r>  -37.5293    1.0000 </r>
       <r>  -37.5293    1.0000 </r>
       <r>  -37.5291    1.0000 </r>
       <r>  -37.5291    1.0000 </r>
       <r>  -37.5289    1.0000 </r>
       <r>  -37.5289    1.0000 </r>
       <r>  -37.5289    1.0000 </r>
       <r>  -37.5289    1.0000 </r>
       <r>  -37.5289    1.0000 </r>
       <r>  -37.5289    1.0000 </r>
       <r>  -37.5289    1.0000 </r>
       <r>  -37.5289    1.0000 </r>
       <r>  -37.5289    1.0000 </r>
       <r>  -37.5289    1.0000 </r>
       <r>  -37.5288    1.0000 </r>
       <r>  -37.5288    1.0000 </r>
       <r>  -37.5287    1.0000 </r>
       <r>  -37.5287    1.0000 </r>
       <r>  -37.5287    1.0000 </r>
       <r>  -37.5287    1.0000 </r>
       <r>  -37.5281    1.0000 </r>
       <r>  -37.5281    1.0000 </r>
       <r>  -37.5280    1.0000 </r>
       <r>  -37.5280    1.0000 </r>
       <r>  -37.5278    1.0000 </r>
       <r>  -37.5276    1.0000 </r>
       <r>  -37.5275    1.0000 </r>
       <r>  -37.5275    1.0000 </r>
       <r>  -37.5274    1.0000 </r>
       <r>  -37.5273    1.0000 </r>
       <r>  -37.5273    1.0000 </r>
       <r>  -37.5272    1.0000 </r>
       <r>  -37.5272    1.0000 </r>
       <r>  -37.5269    1.0000 </r>
       <r>  -37.5269    1.0000 </r>
       <r>  -37.5269    1.0000 </r>
       <r>  -37.5269    1.0000 </r>
       <r>  -37.5268    1.0000 </r>
       <r>  -37.5268    1.0000 </r>
       <r>  -37.5267    1.0000 </r>
       <r>  -37.5267    1.0000 </r>
       <r>  -37.5266    1.0000 </r>
       <r>  -37.5266    1.0000 </r>
       <r>  -37.5265    1.0000 </r>
       <r>  -37.5265    1.0000 </r>
       <r>  -37.5264    1.0000 </r>
       <r>  -37.5264    1.0000 </r>
       <r>  -37.5264    1.0000 </r>
       <r>  -37.5264    1.0000 </r>
       <r>  -37.5262    1.0000 </r>
       <r>  -37.5262    1.0000 </r>
       <r>  -37.5261    1.0000 </r>
       <r>  -37.5256    1.0000 </r>
       <r>  -37.5253    1.0000 </r>
       <r>  -37.5253    1.0000 </r>
       <r>  -37.5188    1.0000 </r>
       <r>  -37.5188    1.0000 </r>
       <r>  -37.5183    1.0000 </r>
       <r>   -9.1430    1.0000 </r>
       <r>   -8.3651    1.0000 </r>
       <r>   -8.3644    1.0000 </r>
       <r>   -8.3644    1.0000 </r>
       <r>   -8.3644    1.0000 </r>
       <r>   -8.3644    1.0000 </r>
       <r>   -8.3637    1.0000 </r>
       <r>   -7.8332    1.0000 </r>
       <r>   -7.8323    1.0000 </r>
       <r>   -7.8323    1.0000 </r>
       <r>   -7.8312    1.0000 </r>
       <r>   -7.8312    1.0000 </r>
       <r>   -7.8312    1.0000 </r>
       <r>   -7.8312    1.0000 </r>
       <r>   -7.8312    1.0000 </r>
       <r>   -7.8312    1.0000 </r>
       <r>   -7.8301    1.0000 </r>
       <r>   -7.8301    1.0000 </r>
       <r>   -7.8293    1.0000 </r>
       <r>   -7.7452    1.0000 </r>
       <r>   -7.7452    1.0000 </r>
       <r>   -7.7452    1.0000 </r>
       <r>   -7.7452    1.0000 </r>
       <r>   -7.3593    1.0000 </r>
       <r>   -7.3593    1.0000 </r>
       <r>   -7.3592    1.0000 </r>
       <r>   -7.3075    1.0000 </r>
       <r>   -7.3067    1.0000 </r>
       <r>   -7.3067    1.0000 </r>
       <r>   -7.3067    1.0000 </r>
       <r>   -7.3067    1.0000 </r>
       <r>   -7.3059    1.0000 </r>
       <r>   -1.3425    1.0000 </r>
       <r>   -1.3425    1.0000 </r>
       <r>   -1.3425    1.0000 </r>
       <r>   -1.3425    1.0000 </r>
       <r>   -0.6959    1.0000 </r>
       <r>   -0.6959    1.0000 </r>
       <r>   -0.6959    1.0000 </r>
       <r>   -0.1593    1.0000 </r>
       <r>   -0.1578    1.0000 </r>
       <r>   -0.1578    1.0000 </r>
       <r>   -0.1575    1.0000 </r>
       <r>   -0.1575    1.0000 </r>
       <r>   -0.1575    1.0000 </r>
       <r>   -0.1575    1.0000 </r>
       <r>   -0.1575    1.0000 </r>
       <r>   -0.1575    1.0000 </r>
       <r>   -0.1573    1.0000 </r>
       <r>   -0.1573    1.0000 </r>
       <r>   -0.1557    1.0000 </r>
       <r>    0.2973    1.0000 </r>
       <r>    0.2973    1.0000 </r>
       <r>    0.2982    1.0000 </r>
       <r>    0.2982    1.0000 </r>
       <r>    0.2986    1.0000 </r>
       <r>    0.2986    1.0000 </r>
       <r>    0.2986    1.0000 </r>
       <r>    0.2986    1.0000 </r>
       <r>    0.2989    1.0000 </r>
       <r>    0.2989    1.0000 </r>
       <r>    0.2999    1.0000 </r>
       <r>    0.2999    1.0000 </r>
       <r>    1.0363    1.0000 </r>
       <r>    1.0368    1.0000 </r>
       <r>    1.0368    1.0000 </r>
       <r>    1.0368    1.0000 </r>
       <r>    1.0368    1.0000 </r>
       <r>    1.0374    1.0000 </r>
       <r>    1.2151    1.0000 </r>
       <r>    1.2168    1.0000 </r>
       <r>    1.2168    1.0000 </r>
       <r>    1.2170    1.0000 </r>
       <r>    1.2170    1.0000 </r>
       <r>    1.2182    1.0000 </r>
       <r>    1.2244    1.0000 </r>
       <r>    1.2244    1.0000 </r>
       <r>    1.2262    1.0000 </r>
       <r>    1.2263    1.0000 </r>
       <r>    1.2263    1.0000 </r>
       <r>    1.2263    1.0000 </r>
       <r>    1.2263    1.0000 </r>
       <r>    1.2263    1.0000 </r>
       <r>    1.2264    1.0000 </r>
       <r>    1.2269    1.0000 </r>
       <r>    1.2285    1.0000 </r>
       <r>    1.2285    1.0000 </r>
       <r>    1.9203    1.0000 </r>
       <r>    1.9203    1.0000 </r>
       <r>    1.9203    1.0000 </r>
       <r>    1.9203    1.0000 </r>
       <r>    1.9203    1.0000 </r>
       <r>    1.9203    1.0000 </r>
       <r>    2.6573    1.0000 </r>
       <r>    2.6573    1.0000 </r>
       <r>    2.6587    1.0000 </r>
       <r>    2.6587    1.0000 </r>
       <r>    2.6589    1.0000 </r>
       <r>    2.6589    1.0000 </r>
       <r>    2.6589    1.0000 </r>
       <r>    2.6589    1.0000 </r>
       <r>    2.6591    1.0000 </r>
       <r>    2.6591    1.0000 </r>
       <r>    2.6606    1.0000 </r>
       <r>    2.6606    1.0000 </r>
       <r>    3.0057    1.0000 </r>
       <r>    3.0065    1.0000 </r>
       <r>    3.0073    1.0000 </r>
       <r>    3.0073    1.0000 </r>
       <r>    3.0073    1.0000 </r>
       <r>    3.0074    1.0000 </r>
       <r>    3.0074    1.0000 </r>
       <r>    3.0074    1.0000 </r>
       <r>    3.0074    1.0000 </r>
       <r>    3.0074    1.0000 </r>
       <r>    3.0081    1.0000 </r>
       <r>    3.0090    1.0000 </r>
       <r>    3.0493    1.0000 </r>
       <r>    3.0493    1.0000 </r>
       <r>    3.0493    1.0000 </r>
       <r>    3.0493    1.0000 </r>
       <r>    3.0493    1.0000 </r>
       <r>    3.0493    1.0000 </r>
       <r>    3.0493    1.0000 </r>
       <r>    3.0493    1.0000 </r>
       <r>    3.6773    1.0000 </r>
       <r>    3.6773    1.0000 </r>
       <r>    3.6773    1.0000 </r>
       <r>    6.4326    0.0000 </r>
       <r>    6.4326    0.0000 </r>
       <r>    6.4326    0.0000 </r>
       <r>    7.4531    0.0000 </r>
       <r>    7.8469    0.0000 </r>
       <r>    7.8469    0.0000 </r>
       <r>    7.8469    0.0000 </r>
       <r>    8.1110    0.0000 </r>
       <r>    8.1110    0.0000 </r>
       <r>    8.1110    0.0000 </r>
       <r>    8.1111    0.0000 </r>
       <r>    8.7023    0.0000 </r>
       <r>    8.7036    0.0000 </r>
       <r>    8.7036    0.0000 </r>
       <r>    8.7036    0.0000 </r>
       <r>    8.7036    0.0000 </r>
       <r>    8.7049    0.0000 </r>
       <r>    8.9779    0.0000 </r>
       <r>    8.9805    0.0000 </r>
       <r>    8.9805    0.0000 </r>
       <r>    8.9806    0.0000 </r>
       <r>    8.9806    0.0000 </r>
       <r>    8.9833    0.0000 </r>
       <r>    9.1065    0.0000 </r>
       <r>    9.1074    0.0000 </r>
       <r>    9.1074    0.0000 </r>
       <r>    9.1074    0.0000 </r>
       <r>    9.1074    0.0000 </r>
       <r>    9.1082    0.0000 </r>
       <r>    9.2868    0.0000 </r>
       <r>    9.2868    0.0000 </r>
       <r>    9.2868    0.0000 </r>
       <r>    9.2873    0.0000 </r>
       <r>    9.2875    0.0000 </r>
       <r>    9.2876    0.0000 </r>
       <r>    9.2876    0.0000 </r>
       <r>    9.2876    0.0000 </r>
       <r>    9.2878    0.0000 </r>
       <r>    9.2883    0.0000 </r>
       <r>    9.2883    0.0000 </r>
       <r>    9.2884    0.0000 </r>
       <r>   10.5320    0.0000 </r>
       <r>   10.5320    0.0000 </r>
       <r>   10.5320    0.0000 </r>
      </set>
      <set comment="kpoint 2">
       <r>  -37.5397    1.0000 </r>
       <r>  -37.5393    1.0000 </r>
       <r>  -37.5393    1.0000 </r>
       <r>  -37.5335    1.0000 </r>
       <r>  -37.5335    1.0000 </r>
       <r>  -37.5331    1.0000 </r>
       <r>  -37.5330    1.0000 </r>
       <r>  -37.5326    1.0000 </r>
       <r>  -37.5324    1.0000 </r>
       <r>  -37.5322    1.0000 </r>
       <r>  -37.5322    1.0000 </r>
       <r>  -37.5321    1.0000 </r>
       <r>  -37.5320    1.0000 </r>
       <r>  -37.5319    1.0000 </r>
       <r>  -37.5319    1.0000 </r>
       <r>  -37.5317    1.0000 </r>
       <r>  -37.5317    1.0000 </r>
       <r>  -37.5316    1.0000 </r>
       <r>  -37.5316    1.0000 </r>
       <r>  -37.5315    1.0000 </r>
       <r>  -37.5315    1.0000 </r>
       <r>  -37.5315    1.0000 </r>
       <r>  -37.5314    1.0000 </r>
       <r>  -37.5312    1.0000 </r>
       <r>  -37.5308    1.0000 </r>
       <r>  -37.5308    1.0000 </r>
       <r>  -37.5305    1.0000 </r>
       <r>  -37.5305    1.0000 </r>
       <r>  -37.5304    1.0000 </r>
       <r>  -37.5303    1.0000 </r>
       <r>  -37.5301    1.0000 </r>
       <r>  -37.5300    1.0000 </r>
       <r>  -37.5299    1.0000 </r>
       <r>  -37.5299    1.0000 </r>
       <r>  -37.5299    1.0000 </r>
       <r>  -37.5298    1.0000 </r>
       <r>  -37.5298    1.0000 </r>
       <r>  -37.5298    1.0000 </r>
       <r>  -37.5298    1.0000 </r>
       <r>  -37.5295    1.0000 </r>
       <r>  -37.5295    1.0000 </r>
       <r>  -37.5293    1.0000 </r>
       <r>  -37.5293    1.0000 </r>
       <r>  -37.5291    1.0000 </r>
       <r>  -37.5288    1.0000 </r>
       <r>  -37.5288    1.0000 </r>
       <r>  -37.5287    1.0000 </r>
       <r>  -37.5287    1.0000 </r>
       <r>  -37.5285    1.0000 </r>
       <r>  -37.5285    1.0000 </r>
       <r>  -37.5283    1.0000 </r>
       <r>  -37.5282    1.0000 </r>
       <r>  -37.5282    1.0000 </r>
       <r>  -37.5281    1.0000 </r>
       <r>  -37.5281    1.0000 </r>
       <r>  -37.5281    1.0000 </r>
       <r>  -37.5280    1.0000 </r>
       <r>  -37.5279    1.0000 </r>
       <r>  -37.5279    1.0000 </r>
       <r>  -37.5279    1.0000 </r>
       <r>  -37.5279    1.0000 </r>
       <r>  -37.5278    1.0000 </r>
       <r>  -37.5278    1.0000 </r>
       <r>  -37.5278    1.0000 </r>
       <r>  -37.5278    1.0000 </r>
       <r>  -37.5276    1.0000 </r>
       <r>  -37.5276    1.0000 </r>
       <r>  -37.5275    1.0000 </r>
       <r>  -37.5273    1.0000 </r>
       <r>  -37.5273    1.0000 </r>
       <r>  -37.5272    1.0000 </r>
       <r>  -37.5271    1.0000 </r>
       <r>  -37.5271    1.0000 </r>
       <r>  -37.5269    1.0000 </r>
       <r>  -37.5268    1.0000 </r>
       <r>  -37.5268    1.0000 </r>
       <r>  -37.5268    1.0000 </r>
       <r>  -37.5268    1.0000 </r>
       <r>  -37.5268    1.0000 </r>
       <r>  -37.5266    1.0000 </r>
       <r>  -37.5266    1.0000 </r>
       <r>  -37.5266    1.0000 </r>
       <r>  -37.5266    1.0000 </r>
       <r>  -37.5265    1.0000 </r>
       <r>  -37.5265    1.0000 </r>
       <r>  -37.5263    1.0000 </r>
       <r>  -37.5263    1.0000 </r>
       <r>  -37.5263    1.0000 </r>
       <r>  -37.5263    1.0000 </r>
       <r>  -37.5261    1.0000 </r>
       <r>  -37.5260    1.0000 </r>
       <r>  -37.5253    1.0000 </r>
       <r>  -37.5253    1.0000 </r>
       <r>  -37.5188    1.0000 </r>
       <r>  -37.5188    1.0000 </r>
       <r>  -37.5183    1.0000 </r>
       <r>   -8.9312    1.0000 </r>
       <r>   -8.9304    1.0000 </r>
       <r>   -8.2106    1.0000 </r>
       <r>   -8.2106    1.0000 </r>
       <r>   -8.2106    1.0000 </r>
       <r>   -8.2100    1.0000 </r>
       <r>   -8.2095    1.0000 </r>
       <r>   -8.2089    1.0000 </r>
       <r>   -8.2089    1.0000 </r>
       <r>   -8.2089    1.0000 </r>
       <r>   -7.7906    1.0000 </r>
       <r>   -7.7906    1.0000 </r>
       <r>   -7.7891    1.0000 </r>
       <r>   -7.7890    1.0000 </r>
       <r>   -7.7890    1.0000 </r>
       <r>   -7.7888    1.0000 </r>
       <r>   -7.7873    1.0000 </r>
       <r>   -7.7873    1.0000 </r>
       <r>   -7.6899    1.0000 </r>
       <r>   -7.6872    1.0000 </r>
       <r>   -7.4579    1.0000 </r>
       <r>   -7.4568    1.0000 </r>
       <r>   -7.4568    1.0000 </r>
       <r>   -7.4568    1.0000 </r>
       <r>   -7.4552    1.0000 </r>
       <r>   -7.4552    1.0000 </r>
       <r>   -7.4552    1.0000 </r>
       <r>   -7.4540    1.0000 </r>
       <r>   -7.3349    1.0000 </r>
       <r>   -7.3333    1.0000 </r>
       <r>   -7.3332    1.0000 </r>
       <r>   -7.3315    1.0000 </r>
       <r>   -0.9002    1.0000 </r>
       <r>   -0.9000    1.0000 </r>
       <r>   -0.8991    1.0000 </r>
       <r>   -0.8991    1.0000 </r>
       <r>   -0.8989    1.0000 </r>
       <r>   -0.8989    1.0000 </r>
       <r>   -0.8979    1.0000 </r>
       <r>   -0.8978    1.0000 </r>
       <r>   -0.4379    1.0000 </r>
       <r>   -0.4379    1.0000 </r>
       <r>   -0.4372    1.0000 </r>
       <r>   -0.4372    1.0000 </r>
       <r>   -0.2055    1.0000 </r>
       <r>   -0.2036    1.0000 </r>
       <r>   -0.1819    1.0000 </r>
       <r>   -0.1801    1.0000 </r>
       <r>   -0.1801    1.0000 </r>
       <r>   -0.1799    1.0000 </r>
       <r>   -0.1796    1.0000 </r>
       <r>   -0.1794    1.0000 </r>
       <r>   -0.1794    1.0000 </r>
       <r>   -0.1775    1.0000 </r>
       <r>    0.4969    1.0000 </r>
       <r>    0.4977    1.0000 </r>
       <r>    0.4977    1.0000 </r>
       <r>    0.4977    1.0000 </r>
       <r>    0.4987    1.0000 </r>
       <r>    0.4987    1.0000 </r>
       <r>    0.4987    1.0000 </r>
       <r>    0.4996    1.0000 </r>
       <r>    0.5409    1.0000 </r>
       <r>    0.5410    1.0000 </r>
       <r>    0.5417    1.0000 </r>
       <r>    0.5417    1.0000 </r>
       <r>    0.5417    1.0000 </r>
       <r>    0.5417    1.0000 </r>
       <r>    0.5424    1.0000 </r>
       <r>    0.5425    1.0000 </r>
       <r>    1.3157    1.0000 </r>
       <r>    1.3157    1.0000 </r>
       <r>    1.3188    1.0000 </r>
       <r>    1.3188    1.0000 </r>
       <r>    1.5313    1.0000 </r>
       <r>    1.5323    1.0000 </r>
       <r>    1.5328    1.0000 </r>
       <r>    1.5338    1.0000 </r>
       <r>    2.1176    1.0000 </r>
       <r>    2.1176    1.0000 </r>
       <r>    2.1184    1.0000 </r>
       <r>    2.1184    1.0000 </r>
       <r>    2.1415    1.0000 </r>
       <r>    2.1415    1.0000 </r>
       <r>    2.1430    1.0000 </r>
       <r>    2.1431    1.0000 </r>
       <r>    2.1444    1.0000 </r>
       <r>    2.1445    1.0000 </r>
       <r>    2.1459    1.0000 </r>
       <r>    2.1459    1.0000 </r>
       <r>    2.1502    1.0000 </r>
       <r>    2.1525    1.0000 </r>
       <r>    2.1525    1.0000 </r>
       <r>    2.1526    1.0000 </r>
       <r>    2.1531    1.0000 </r>
       <r>    2.1534    1.0000 </r>
       <r>    2.1534    1.0000 </r>
       <r>    2.1553    1.0000 </r>
       <r>    2.2460    1.0000 </r>
       <r>    2.2460    1.0000 </r>
       <r>    2.2464    1.0000 </r>
       <r>    2.2474    1.0000 </r>
       <r>    2.2480    1.0000 </r>
       <r>    2.2491    1.0000 </r>
       <r>    2.2495    1.0000 </r>
       <r>    2.2495    1.0000 </r>
       <r>    2.6371    1.0000 </r>
       <r>    2.6384    1.0000 </r>
       <r>    2.9605    1.0000 </r>
       <r>    2.9606    1.0000 </r>
       <r>    2.9606    1.0000 </r>
       <r>    2.9612    1.0000 </r>
       <r>    2.9616    1.0000 </r>
       <r>    2.9622    1.0000 </r>
       <r>    2.9622    1.0000 </r>
       <r>    2.9623    1.0000 </r>
       <r>    3.0264    1.0000 </r>
       <r>    3.0266    1.0000 </r>
       <r>    3.0281    1.0000 </r>
       <r>    3.0281    1.0000 </r>
       <r>    3.0282    1.0000 </r>
       <r>    3.0282    1.0000 </r>
       <r>    3.0297    1.0000 </r>
       <r>    3.0299    1.0000 </r>
       <r>    3.3326    1.0000 </r>
       <r>    3.3326    1.0000 </r>
       <r>    3.3354    1.0000 </r>
       <r>    3.3354    1.0000 </r>
       <r>    7.0789    0.0000 </r>
       <r>    7.0805    0.0000 </r>
       <r>    7.4752    0.0000 </r>
       <r>    7.4778    0.0000 </r>
       <r>    7.4783    0.0000 </r>
       <r>    7.4809    0.0000 </r>
       <r>    8.1678    0.0000 </r>
       <r>    8.1688    0.0000 </r>
       <r>    8.6125    0.0000 </r>
       <r>    8.6154    0.0000 </r>
       <r>    8.9123    0.0000 </r>
       <r>    8.9123    0.0000 </r>
       <r>    8.9125    0.0000 </r>
       <r>    8.9136    0.0000 </r>
       <r>    8.9149    0.0000 </r>
       <r>    8.9155    0.0000 </r>
       <r>    8.9160    0.0000 </r>
       <r>    8.9160    0.0000 </r>
       <r>    8.9341    0.0000 </r>
       <r>    8.9341    0.0000 </r>
       <r>    8.9347    0.0000 </r>
       <r>    8.9354    0.0000 </r>
       <r>    8.9355    0.0000 </r>
       <r>    8.9366    0.0000 </r>
       <r>    8.9368    0.0000 </r>
       <r>    8.9368    0.0000 </r>
       <r>    8.9951    0.0000 </r>
       <r>    8.9951    0.0000 </r>
       <r>    8.9977    0.0000 </r>
       <r>    8.9977    0.0000 </r>
       <r>    9.5045    0.0000 </r>
       <r>    9.5078    0.0000 </r>
       <r>    9.5078    0.0000 </r>
       <r>    9.5085    0.0000 </r>
       <r>    9.5088    0.0000 </r>
       <r>    9.5094    0.0000 </r>
       <r>    9.5094    0.0000 </r>
       <r>    9.5127    0.0000 </r>
       <r>   10.0240    0.0000 </r>
       <r>   10.0246    0.0000 </r>
       <r>   10.0254    0.0000 </r>
       <r>   10.0272    0.0000 </r>
       <r>   10.0277    0.0000 </r>
       <r>   10.0396    0.0000 </r>
      </set>
      <set comment="kpoint 3">
       <r>  -37.5398    1.0000 </r>
       <r>  -37.5393    1.0000 </r>
       <r>  -37.5393    1.0000 </r>
       <r>  -37.5332    1.0000 </r>
       <r>  -37.5331    1.0000 </r>
       <r>  -37.5329    1.0000 </r>
       <r>  -37.5329    1.0000 </r>
       <r>  -37.5329    1.0000 </r>
       <r>  -37.5329    1.0000 </r>
       <r>  -37.5329    1.0000 </r>
       <r>  -37.5326    1.0000 </r>
       <r>  -37.5324    1.0000 </r>
       <r>  -37.5324    1.0000 </r>
       <r>  -37.5323    1.0000 </r>
       <r>  -37.5318    1.0000 </r>
       <r>  -37.5315    1.0000 </r>
       <r>  -37.5315    1.0000 </r>
       <r>  -37.5314    1.0000 </r>
       <r>  -37.5313    1.0000 </r>
       <r>  -37.5312    1.0000 </r>
       <r>  -37.5311    1.0000 </r>
       <r>  -37.5310    1.0000 </r>
       <r>  -37.5309    1.0000 </r>
       <r>  -37.5308    1.0000 </r>
       <r>  -37.5307    1.0000 </r>
       <r>  -37.5305    1.0000 </r>
       <r>  -37.5305    1.0000 </r>
       <r>  -37.5305    1.0000 </r>
       <r>  -37.5302    1.0000 </r>
       <r>  -37.5302    1.0000 </r>
       <r>  -37.5302    1.0000 </r>
       <r>  -37.5302    1.0000 </r>
       <r>  -37.5302    1.0000 </r>
       <r>  -37.5301    1.0000 </r>
       <r>  -37.5301    1.0000 </r>
       <r>  -37.5301    1.0000 </r>
       <r>  -37.5300    1.0000 </r>
       <r>  -37.5299    1.0000 </r>
       <r>  -37.5296    1.0000 </r>
       <r>  -37.5296    1.0000 </r>
       <r>  -37.5296    1.0000 </r>
       <r>  -37.5295    1.0000 </r>
       <r>  -37.5295    1.0000 </r>
       <r>  -37.5291    1.0000 </r>
       <r>  -37.5290    1.0000 </r>
       <r>  -37.5288    1.0000 </r>
       <r>  -37.5288    1.0000 </r>
       <r>  -37.5288    1.0000 </r>
       <r>  -37.5286    1.0000 </r>
       <r>  -37.5285    1.0000 </r>
       <r>  -37.5284    1.0000 </r>
       <r>  -37.5284    1.0000 </r>
       <r>  -37.5284    1.0000 </r>
       <r>  -37.5281    1.0000 </r>
       <r>  -37.5281    1.0000 </r>
       <r>  -37.5280    1.0000 </r>
       <r>  -37.5280    1.0000 </r>
       <r>  -37.5279    1.0000 </r>
       <r>  -37.5277    1.0000 </r>
       <r>  -37.5277    1.0000 </r>
       <r>  -37.5277    1.0000 </r>
       <r>  -37.5276    1.0000 </r>
       <r>  -37.5276    1.0000 </r>
       <r>  -37.5275    1.0000 </r>
       <r>  -37.5275    1.0000 </r>
       <r>  -37.5275    1.0000 </r>
       <r>  -37.5275    1.0000 </r>
       <r>  -37.5274    1.0000 </r>
       <r>  -37.5274    1.0000 </r>
       <r>  -37.5274    1.0000 </r>
       <r>  -37.5274    1.0000 </r>
       <r>  -37.5273    1.0000 </r>
       <r>  -37.5272    1.0000 </r>
       <r>  -37.5272    1.0000 </r>
       <r>  -37.5272    1.0000 </r>
       <r>  -37.5270    1.0000 </r>
       <r>  -37.5268    1.0000 </r>
       <r>  -37.5268    1.0000 </r>
       <r>  -37.5268    1.0000 </r>
       <r>  -37.5268    1.0000 </r>
       <r>  -37.5267    1.0000 </r>
       <r>  -37.5266    1.0000 </r>
       <r>  -37.5265    1.0000 </r>
       <r>  -37.5265    1.0000 </r>
       <r>  -37.5265    1.0000 </r>
       <r>  -37.5262    1.0000 </r>
       <r>  -37.5262    1.0000 </r>
       <r>  -37.5260    1.0000 </r>
       <r>  -37.5259    1.0000 </r>
       <r>  -37.5258    1.0000 </r>
       <r>  -37.5258    1.0000 </r>
       <r>  -37.5257    1.0000 </r>
       <r>  -37.5257    1.0000 </r>
       <r>  -37.5188    1.0000 </r>
       <r>  -37.5188    1.0000 </r>
       <r>  -37.5183    1.0000 </r>
       <r>   -8.9308    1.0000 </r>
       <r>   -8.9308    1.0000 </r>
       <r>   -8.2111    1.0000 </r>
       <r>   -8.2103    1.0000 </r>
       <r>   -8.2098    1.0000 </r>
       <r>   -8.2098    1.0000 </r>
       <r>   -8.2098    1.0000 </r>
       <r>   -8.2098    1.0000 </r>
       <r>   -8.2092    1.0000 </r>
       <r>   -8.2084    1.0000 </r>
       <r>   -7.7902    1.0000 </r>
       <r>   -7.7890    1.0000 </r>
       <r>   -7.7890    1.0000 </r>
       <r>   -7.7890    1.0000 </r>
       <r>   -7.7890    1.0000 </r>
       <r>   -7.7890    1.0000 </r>
       <r>   -7.7889    1.0000 </r>
       <r>   -7.7878    1.0000 </r>
       <r>   -7.6885    1.0000 </r>
       <r>   -7.6885    1.0000 </r>
       <r>   -7.4566    1.0000 </r>
       <r>   -7.4564    1.0000 </r>
       <r>   -7.4560    1.0000 </r>
       <r>   -7.4560    1.0000 </r>
       <r>   -7.4560    1.0000 </r>
       <r>   -7.4560    1.0000 </r>
       <r>   -7.4556    1.0000 </r>
       <r>   -7.4554    1.0000 </r>
       <r>   -7.3332    1.0000 </r>
       <r>   -7.3332    1.0000 </r>
       <r>   -7.3332    1.0000 </r>
       <r>   -7.3332    1.0000 </r>
       <r>   -0.9000    1.0000 </r>
       <r>   -0.8993    1.0000 </r>
       <r>   -0.8991    1.0000 </r>
       <r>   -0.8990    1.0000 </r>
       <r>   -0.8990    1.0000 </r>
       <r>   -0.8988    1.0000 </r>
       <r>   -0.8986    1.0000 </r>
       <r>   -0.8980    1.0000 </r>
       <r>   -0.4376    1.0000 </r>
       <r>   -0.4376    1.0000 </r>
       <r>   -0.4376    1.0000 </r>
       <r>   -0.4376    1.0000 </r>
       <r>   -0.2045    1.0000 </r>
       <r>   -0.2045    1.0000 </r>
       <r>   -0.1806    1.0000 </r>
       <r>   -0.1802    1.0000 </r>
       <r>   -0.1798    1.0000 </r>
       <r>   -0.1798    1.0000 </r>
       <r>   -0.1798    1.0000 </r>
       <r>   -0.1797    1.0000 </r>
       <r>   -0.1793    1.0000 </r>
       <r>   -0.1789    1.0000 </r>
       <r>    0.4973    1.0000 </r>
       <r>    0.4979    1.0000 </r>
       <r>    0.4982    1.0000 </r>
       <r>    0.4982    1.0000 </r>
       <r>    0.4982    1.0000 </r>
       <r>    0.4982    1.0000 </r>
       <r>    0.4985    1.0000 </r>
       <r>    0.4991    1.0000 </r>
       <r>    0.5396    1.0000 </r>
       <r>    0.5416    1.0000 </r>
       <r>    0.5417    1.0000 </r>
       <r>    0.5417    1.0000 </r>
       <r>    0.5417    1.0000 </r>
       <r>    0.5418    1.0000 </r>
       <r>    0.5418    1.0000 </r>
       <r>    0.5439    1.0000 </r>
       <r>    1.3172    1.0000 </r>
       <r>    1.3172    1.0000 </r>
       <r>    1.3172    1.0000 </r>
       <r>    1.3172    1.0000 </r>
       <r>    1.5326    1.0000 </r>
       <r>    1.5326    1.0000 </r>
       <r>    1.5326    1.0000 </r>
       <r>    1.5326    1.0000 </r>
       <r>    2.1179    1.0000 </r>
       <r>    2.1179    1.0000 </r>
       <r>    2.1180    1.0000 </r>
       <r>    2.1180    1.0000 </r>
       <r>    2.1418    1.0000 </r>
       <r>    2.1435    1.0000 </r>
       <r>    2.1435    1.0000 </r>
       <r>    2.1437    1.0000 </r>
       <r>    2.1438    1.0000 </r>
       <r>    2.1438    1.0000 </r>
       <r>    2.1438    1.0000 </r>
       <r>    2.1456    1.0000 </r>
       <r>    2.1520    1.0000 </r>
       <r>    2.1524    1.0000 </r>
       <r>    2.1528    1.0000 </r>
       <r>    2.1528    1.0000 </r>
       <r>    2.1529    1.0000 </r>
       <r>    2.1531    1.0000 </r>
       <r>    2.1536    1.0000 </r>
       <r>    2.1540    1.0000 </r>
       <r>    2.2457    1.0000 </r>
       <r>    2.2474    1.0000 </r>
       <r>    2.2475    1.0000 </r>
       <r>    2.2477    1.0000 </r>
       <r>    2.2477    1.0000 </r>
       <r>    2.2479    1.0000 </r>
       <r>    2.2480    1.0000 </r>
       <r>    2.2497    1.0000 </r>
       <r>    2.6377    1.0000 </r>
       <r>    2.6378    1.0000 </r>
       <r>    2.9599    1.0000 </r>
       <r>    2.9604    1.0000 </r>
       <r>    2.9614    1.0000 </r>
       <r>    2.9614    1.0000 </r>
       <r>    2.9614    1.0000 </r>
       <r>    2.9614    1.0000 </r>
       <r>    2.9624    1.0000 </r>
       <r>    2.9629    1.0000 </r>
       <r>    3.0270    1.0000 </r>
       <r>    3.0281    1.0000 </r>
       <r>    3.0281    1.0000 </r>
       <r>    3.0281    1.0000 </r>
       <r>    3.0281    1.0000 </r>
       <r>    3.0281    1.0000 </r>
       <r>    3.0282    1.0000 </r>
       <r>    3.0293    1.0000 </r>
       <r>    3.3340    1.0000 </r>
       <r>    3.3340    1.0000 </r>
       <r>    3.3340    1.0000 </r>
       <r>    3.3340    1.0000 </r>
       <r>    7.0797    0.0000 </r>
       <r>    7.0797    0.0000 </r>
       <r>    7.4780    0.0000 </r>
       <r>    7.4780    0.0000 </r>
       <r>    7.4780    0.0000 </r>
       <r>    7.4780    0.0000 </r>
       <r>    8.1683    0.0000 </r>
       <r>    8.1683    0.0000 </r>
       <r>    8.6140    0.0000 </r>
       <r>    8.6140    0.0000 </r>
       <r>    8.9118    0.0000 </r>
       <r>    8.9139    0.0000 </r>
       <r>    8.9140    0.0000 </r>
       <r>    8.9142    0.0000 </r>
       <r>    8.9142    0.0000 </r>
       <r>    8.9142    0.0000 </r>
       <r>    8.9144    0.0000 </r>
       <r>    8.9161    0.0000 </r>
       <r>    8.9342    0.0000 </r>
       <r>    8.9343    0.0000 </r>
       <r>    8.9345    0.0000 </r>
       <r>    8.9353    0.0000 </r>
       <r>    8.9356    0.0000 </r>
       <r>    8.9366    0.0000 </r>
       <r>    8.9366    0.0000 </r>
       <r>    8.9369    0.0000 </r>
       <r>    8.9963    0.0000 </r>
       <r>    8.9964    0.0000 </r>
       <r>    8.9964    0.0000 </r>
       <r>    8.9964    0.0000 </r>
       <r>    9.5071    0.0000 </r>
       <r>    9.5084    0.0000 </r>
       <r>    9.5086    0.0000 </r>
       <r>    9.5086    0.0000 </r>
       <r>    9.5086    0.0000 </r>
       <r>    9.5087    0.0000 </r>
       <r>    9.5089    0.0000 </r>
       <r>    9.5102    0.0000 </r>
       <r>   10.0242    0.0000 </r>
       <r>   10.0248    0.0000 </r>
       <r>   10.0252    0.0000 </r>
       <r>   10.0255    0.0000 </r>
       <r>   10.0262    0.0000 </r>
       <r>   10.0302    0.0000 </r>
      </set>
      <set comment="kpoint 4">
       <r>  -37.5397    1.0000 </r>
       <r>  -37.5393    1.0000 </r>
       <r>  -37.5392    1.0000 </r>
       <r>  -37.5330    1.0000 </r>
       <r>  -37.5330    1.0000 </r>
       <r>  -37.5329    1.0000 </r>
       <r>  -37.5328    1.0000 </r>
       <r>  -37.5326    1.0000 </r>
       <r>  -37.5326    1.0000 </r>
       <r>  -37.5326    1.0000 </r>
       <r>  -37.5326    1.0000 </r>
       <r>  -37.5323    1.0000 </r>
       <r>  -37.5322    1.0000 </r>
       <r>  -37.5322    1.0000 </r>
       <r>  -37.5318    1.0000 </r>
       <r>  -37.5318    1.0000 </r>
       <r>  -37.5318    1.0000 </r>
       <r>  -37.5316    1.0000 </r>
       <r>  -37.5315    1.0000 </r>
       <r>  -37.5315    1.0000 </r>
       <r>  -37.5315    1.0000 </r>
       <r>  -37.5313    1.0000 </r>
       <r>  -37.5312    1.0000 </r>
       <r>  -37.5311    1.0000 </r>
       <r>  -37.5310    1.0000 </r>
       <r>  -37.5310    1.0000 </r>
       <r>  -37.5308    1.0000 </r>
       <r>  -37.5307    1.0000 </r>
       <r>  -37.5307    1.0000 </r>
       <r>  -37.5306    1.0000 </r>
       <r>  -37.5304    1.0000 </r>
       <r>  -37.5301    1.0000 </r>
       <r>  -37.5301    1.0000 </r>
       <r>  -37.5299    1.0000 </r>
       <r>  -37.5298    1.0000 </r>
       <r>  -37.5295    1.0000 </r>
       <r>  -37.5293    1.0000 </r>
       <r>  -37.5293    1.0000 </r>
       <r>  -37.5292    1.0000 </r>
       <r>  -37.5290    1.0000 </r>
       <r>  -37.5290    1.0000 </r>
       <r>  -37.5289    1.0000 </r>
       <r>  -37.5289    1.0000 </r>
       <r>  -37.5289    1.0000 </r>
       <r>  -37.5288    1.0000 </r>
       <r>  -37.5288    1.0000 </r>
       <r>  -37.5286    1.0000 </r>
       <r>  -37.5285    1.0000 </r>
       <r>  -37.5285    1.0000 </r>
       <r>  -37.5284    1.0000 </r>
       <r>  -37.5284    1.0000 </r>
       <r>  -37.5283    1.0000 </r>
       <r>  -37.5283    1.0000 </r>
       <r>  -37.5283    1.0000 </r>
       <r>  -37.5283    1.0000 </r>
       <r>  -37.5282    1.0000 </r>
       <r>  -37.5281    1.0000 </r>
       <r>  -37.5280    1.0000 </r>
       <r>  -37.5280    1.0000 </r>
       <r>  -37.5279    1.0000 </r>
       <r>  -37.5279    1.0000 </r>
       <r>  -37.5279    1.0000 </r>
       <r>  -37.5277    1.0000 </r>
       <r>  -37.5277    1.0000 </r>
       <r>  -37.5275    1.0000 </r>
       <r>  -37.5275    1.0000 </r>
       <r>  -37.5274    1.0000 </r>
       <r>  -37.5274    1.0000 </r>
       <r>  -37.5274    1.0000 </r>
       <r>  -37.5273    1.0000 </r>
       <r>  -37.5273    1.0000 </r>
       <r>  -37.5272    1.0000 </r>
       <r>  -37.5272    1.0000 </r>
       <r>  -37.5272    1.0000 </r>
       <r>  -37.5271    1.0000 </r>
       <r>  -37.5271    1.0000 </r>
       <r>  -37.5269    1.0000 </r>
       <r>  -37.5269    1.0000 </r>
       <r>  -37.5269    1.0000 </r>
       <r>  -37.5268    1.0000 </r>
       <r>  -37.5267    1.0000 </r>
       <r>  -37.5266    1.0000 </r>
       <r>  -37.5265    1.0000 </r>
       <r>  -37.5265    1.0000 </r>
       <r>  -37.5265    1.0000 </r>
       <r>  -37.5262    1.0000 </r>
       <r>  -37.5261    1.0000 </r>
       <r>  -37.5258    1.0000 </r>
       <r>  -37.5257    1.0000 </r>
       <r>  -37.5257    1.0000 </r>
       <r>  -37.5257    1.0000 </r>
       <r>  -37.5256    1.0000 </r>
       <r>  -37.5255    1.0000 </r>
       <r>  -37.5188    1.0000 </r>
       <r>  -37.5187    1.0000 </r>
       <r>  -37.5183    1.0000 </r>
       <r>   -8.7323    1.0000 </r>
       <r>   -8.7321    1.0000 </r>
       <r>   -8.7315    1.0000 </r>
       <r>   -8.7312    1.0000 </r>
       <r>   -8.0830    1.0000 </r>
       <r>   -8.0825    1.0000 </r>
       <r>   -8.0820    1.0000 </r>
       <r>   -8.0817    1.0000 </r>
       <r>   -8.0817    1.0000 </r>
       <r>   -8.0814    1.0000 </r>
       <r>   -8.0808    1.0000 </r>
       <r>   -8.0803    1.0000 </r>
       <r>   -7.6134    1.0000 </r>
       <r>   -7.6122    1.0000 </r>
       <r>   -7.6120    1.0000 </r>
       <r>   -7.6115    1.0000 </r>
       <r>   -7.6109    1.0000 </r>
       <r>   -7.6104    1.0000 </r>
       <r>   -7.6102    1.0000 </r>
       <r>   -7.6090    1.0000 </r>
       <r>   -7.5411    1.0000 </r>
       <r>   -7.5411    1.0000 </r>
       <r>   -7.5405    1.0000 </r>
       <r>   -7.5399    1.0000 </r>
       <r>   -7.5394    1.0000 </r>
       <r>   -7.5388    1.0000 </r>
       <r>   -7.5382    1.0000 </r>
       <r>   -7.5381    1.0000 </r>
       <r>   -7.3573    1.0000 </r>
       <r>   -7.3566    1.0000 </r>
       <r>   -7.3555    1.0000 </r>
       <r>   -7.3548    1.0000 </r>
       <r>   -0.8023    1.0000 </r>
       <r>   -0.8023    1.0000 </r>
       <r>   -0.8022    1.0000 </r>
       <r>   -0.8019    1.0000 </r>
       <r>   -0.8016    1.0000 </r>
       <r>   -0.8013    1.0000 </r>
       <r>   -0.8012    1.0000 </r>
       <r>   -0.8011    1.0000 </r>
       <r>   -0.2307    1.0000 </r>
       <r>   -0.2294    1.0000 </r>
       <r>   -0.2293    1.0000 </r>
       <r>   -0.2289    1.0000 </r>
       <r>   -0.2287    1.0000 </r>
       <r>   -0.2283    1.0000 </r>
       <r>   -0.2282    1.0000 </r>
       <r>   -0.2269    1.0000 </r>
       <r>   -0.2151    1.0000 </r>
       <r>   -0.2147    1.0000 </r>
       <r>   -0.2145    1.0000 </r>
       <r>   -0.2145    1.0000 </r>
       <r>   -0.2134    1.0000 </r>
       <r>   -0.2133    1.0000 </r>
       <r>   -0.2131    1.0000 </r>
       <r>   -0.2126    1.0000 </r>
       <r>   -0.1832    1.0000 </r>
       <r>   -0.1828    1.0000 </r>
       <r>   -0.1824    1.0000 </r>
       <r>   -0.1821    1.0000 </r>
       <r>    0.3537    1.0000 </r>
       <r>    0.3541    1.0000 </r>
       <r>    0.3556    1.0000 </r>
       <r>    0.3559    1.0000 </r>
       <r>    1.4311    1.0000 </r>
       <r>    1.4320    1.0000 </r>
       <r>    1.4321    1.0000 </r>
       <r>    1.4322    1.0000 </r>
       <r>    1.4328    1.0000 </r>
       <r>    1.4328    1.0000 </r>
       <r>    1.4329    1.0000 </r>
       <r>    1.4338    1.0000 </r>
       <r>    1.5336    1.0000 </r>
       <r>    1.5358    1.0000 </r>
       <r>    1.5359    1.0000 </r>
       <r>    1.5363    1.0000 </r>
       <r>    1.5369    1.0000 </r>
       <r>    1.5373    1.0000 </r>
       <r>    1.5373    1.0000 </r>
       <r>    1.5396    1.0000 </r>
       <r>    1.6675    1.0000 </r>
       <r>    1.6680    1.0000 </r>
       <r>    1.6685    1.0000 </r>
       <r>    1.6690    1.0000 </r>
       <r>    2.0088    1.0000 </r>
       <r>    2.0101    1.0000 </r>
       <r>    2.0107    1.0000 </r>
       <r>    2.0108    1.0000 </r>
       <r>    2.0115    1.0000 </r>
       <r>    2.0116    1.0000 </r>
       <r>    2.0122    1.0000 </r>
       <r>    2.0135    1.0000 </r>
       <r>    2.2493    1.0000 </r>
       <r>    2.2494    1.0000 </r>
       <r>    2.2500    1.0000 </r>
       <r>    2.2501    1.0000 </r>
       <r>    2.4633    1.0000 </r>
       <r>    2.4648    1.0000 </r>
       <r>    2.4650    1.0000 </r>
       <r>    2.4652    1.0000 </r>
       <r>    2.4657    1.0000 </r>
       <r>    2.4659    1.0000 </r>
       <r>    2.4661    1.0000 </r>
       <r>    2.4675    1.0000 </r>
       <r>    2.7079    1.0000 </r>
       <r>    2.7084    1.0000 </r>
       <r>    2.7086    1.0000 </r>
       <r>    2.7088    1.0000 </r>
       <r>    2.7097    1.0000 </r>
       <r>    2.7098    1.0000 </r>
       <r>    2.7101    1.0000 </r>
       <r>    2.7105    1.0000 </r>
       <r>    2.8418    1.0000 </r>
       <r>    2.8418    1.0000 </r>
       <r>    2.8419    1.0000 </r>
       <r>    2.8423    1.0000 </r>
       <r>    2.8425    1.0000 </r>
       <r>    2.8429    1.0000 </r>
       <r>    2.8429    1.0000 </r>
       <r>    2.8430    1.0000 </r>
       <r>    2.9207    1.0000 </r>
       <r>    2.9225    1.0000 </r>
       <r>    2.9236    1.0000 </r>
       <r>    2.9254    1.0000 </r>
       <r>    3.5596    1.0000 </r>
       <r>    3.5599    1.0000 </r>
       <r>    3.5605    1.0000 </r>
       <r>    3.5608    1.0000 </r>
       <r>    7.5271    0.0000 </r>
       <r>    7.5273    0.0000 </r>
       <r>    7.5287    0.0000 </r>
       <r>    7.5289    0.0000 </r>
       <r>    8.0243    0.0000 </r>
       <r>    8.0267    0.0000 </r>
       <r>    8.0269    0.0000 </r>
       <r>    8.0269    0.0000 </r>
       <r>    8.0277    0.0000 </r>
       <r>    8.0277    0.0000 </r>
       <r>    8.0279    0.0000 </r>
       <r>    8.0303    0.0000 </r>
       <r>    8.8878    0.0000 </r>
       <r>    8.8890    0.0000 </r>
       <r>    8.8892    0.0000 </r>
       <r>    8.8895    0.0000 </r>
       <r>    8.8897    0.0000 </r>
       <r>    8.8900    0.0000 </r>
       <r>    8.8901    0.0000 </r>
       <r>    8.8913    0.0000 </r>
       <r>    9.1068    0.0000 </r>
       <r>    9.1080    0.0000 </r>
       <r>    9.1104    0.0000 </r>
       <r>    9.1115    0.0000 </r>
       <r>    9.2334    0.0000 </r>
       <r>    9.2357    0.0000 </r>
       <r>    9.2358    0.0000 </r>
       <r>    9.2361    0.0000 </r>
       <r>    9.2365    0.0000 </r>
       <r>    9.2369    0.0000 </r>
       <r>    9.2369    0.0000 </r>
       <r>    9.2387    0.0000 </r>
       <r>    9.2668    0.0000 </r>
       <r>    9.2694    0.0000 </r>
       <r>    9.2697    0.0000 </r>
       <r>    9.2700    0.0000 </r>
       <r>    9.2702    0.0000 </r>
       <r>    9.2706    0.0000 </r>
       <r>    9.2708    0.0000 </r>
       <r>    9.2740    0.0000 </r>
       <r>    9.7134    0.0000 </r>
       <r>    9.7139    0.0000 </r>
       <r>    9.7141    0.0000 </r>
       <r>    9.7147    0.0000 </r>
      </set>
      <set comment="kpoint 5">
       <r>  -37.5397    1.0000 </r>
       <r>  -37.5393    1.0000 </r>
       <r>  -37.5393    1.0000 </r>
       <r>  -37.5333    1.0000 </r>
       <r>  -37.5333    1.0000 </r>
       <r>  -37.5327    1.0000 </r>
       <r>  -37.5327    1.0000 </r>
       <r>  -37.5326    1.0000 </r>
       <r>  -37.5324    1.0000 </r>
       <r>  -37.5323    1.0000 </r>
       <r>  -37.5323    1.0000 </r>
       <r>  -37.5322    1.0000 </r>
       <r>  -37.5322    1.0000 </r>
       <r>  -37.5320    1.0000 </r>
       <r>  -37.5320    1.0000 </r>
       <r>  -37.5319    1.0000 </r>
       <r>  -37.5318    1.0000 </r>
       <r>  -37.5318    1.0000 </r>
       <r>  -37.5318    1.0000 </r>
       <r>  -37.5318    1.0000 </r>
       <r>  -37.5312    1.0000 </r>
       <r>  -37.5312    1.0000 </r>
       <r>  -37.5312    1.0000 </r>
       <r>  -37.5310    1.0000 </r>
       <r>  -37.5310    1.0000 </r>
       <r>  -37.5310    1.0000 </r>
       <r>  -37.5310    1.0000 </r>
       <r>  -37.5307    1.0000 </r>
       <r>  -37.5306    1.0000 </r>
       <r>  -37.5306    1.0000 </r>
       <r>  -37.5301    1.0000 </r>
       <r>  -37.5301    1.0000 </r>
       <r>  -37.5300    1.0000 </r>
       <r>  -37.5297    1.0000 </r>
       <r>  -37.5297    1.0000 </r>
       <r>  -37.5296    1.0000 </r>
       <r>  -37.5295    1.0000 </r>
       <r>  -37.5293    1.0000 </r>
       <r>  -37.5293    1.0000 </r>
       <r>  -37.5290    1.0000 </r>
       <r>  -37.5289    1.0000 </r>
       <r>  -37.5288    1.0000 </r>
       <r>  -37.5288    1.0000 </r>
       <r>  -37.5288    1.0000 </r>
       <r>  -37.5288    1.0000 </r>
       <r>  -37.5288    1.0000 </r>
       <r>  -37.5288    1.0000 </r>
       <r>  -37.5288    1.0000 </r>
       <r>  -37.5287    1.0000 </r>
       <r>  -37.5286    1.0000 </r>
       <r>  -37.5286    1.0000 </r>
       <r>  -37.5286    1.0000 </r>
       <r>  -37.5283    1.0000 </r>
       <r>  -37.5283    1.0000 </r>
       <r>  -37.5282    1.0000 </r>
       <r>  -37.5282    1.0000 </r>
       <r>  -37.5281    1.0000 </r>
       <r>  -37.5281    1.0000 </r>
[...]
      </set>
     </set>
    </set>
   </array>
  </eigenvalues>
  <separator name="orbital magnetization" >
   <v name="MAGDIPOLOUT">      0.00000000      0.00000000      0.00000000</v>
  </separator>
  <dos>
   <i name="efermi">      3.81399889 </i>
   <total>
    <array>
     <dimension dim="1">gridpoints</dimension>
     <dimension dim="2">spin</dimension>
     <field>energy</field>
     <field>total</field>
     <field>integrated</field>
     <set>
      <set comment="spin 1">
       <r>   -39.9433     0.0000     0.0000 </r>
       <r>   -39.7671     0.0000     0.0000 </r>
       <r>   -39.5908     0.0000     0.0000 </r>
       <r>   -39.4146     0.0000     0.0000 </r>
       <r>   -39.2383     0.0000     0.0000 </r>
       <r>   -39.0620     0.0000     0.0000 </r>
       <r>   -38.8858     0.0000     0.0000 </r>
       <r>   -38.7095     0.0000     0.0000 </r>
       <r>   -38.5332     0.0000     0.0000 </r>
       <r>   -38.3570     0.0000     0.0000 </r>
       <r>   -38.1807     0.0000     0.0000 </r>
       <r>   -38.0044     0.0000     0.0000 </r>
       <r>   -37.8282     0.0000     0.0000 </r>
       <r>   -37.6519     0.0000     0.0000 </r>
       <r>   -37.4757  1089.2801   192.0000 </r>
       <r>   -37.2994     0.0000   192.0000 </r>
       <r>   -37.1231     0.0000   192.0000 </r>
       <r>   -36.9469     0.0000   192.0000 </r>
       <r>   -36.7706     0.0000   192.0000 </r>
       <r>   -36.5943     0.0000   192.0000 </r>
       <r>   -36.4181     0.0000   192.0000 </r>
       <r>   -36.2418     0.0000   192.0000 </r>
       <r>   -36.0656     0.0000   192.0000 </r>
       <r>   -35.8893     0.0000   192.0000 </r>
       <r>   -35.7130     0.0000   192.0000 </r>
       <r>   -35.5368     0.0000   192.0000 </r>
       <r>   -35.3605     0.0000   192.0000 </r>
       <r>   -35.1842     0.0000   192.0000 </r>
       <r>   -35.0080     0.0000   192.0000 </r>
       <r>   -34.8317     0.0000   192.0000 </r>
       <r>   -34.6554     0.0000   192.0000 </r>
       <r>   -34.4792     0.0000   192.0000 </r>
       <r>   -34.3029     0.0000   192.0000 </r>
       <r>   -34.1267     0.0000   192.0000 </r>
       <r>   -33.9504     0.0000   192.0000 </r>
       <r>   -33.7741     0.0000   192.0000 </r>
       <r>   -33.5979     0.0000   192.0000 </r>
       <r>   -33.4216     0.0000   192.0000 </r>
       <r>   -33.2453     0.0000   192.0000 </r>
       <r>   -33.0691     0.0000   192.0000 </r>
       <r>   -32.8928     0.0000   192.0000 </r>
       <r>   -32.7166     0.0000   192.0000 </r>
       <r>   -32.5403     0.0000   192.0000 </r>
       <r>   -32.3640     0.0000   192.0000 </r>
       <r>   -32.1878     0.0000   192.0000 </r>
       <r>   -32.0115     0.0000   192.0000 </r>
       <r>   -31.8352     0.0000   192.0000 </r>
       <r>   -31.6590     0.0000   192.0000 </r>
       <r>   -31.4827     0.0000   192.0000 </r>
       <r>   -31.3064     0.0000   192.0000 </r>
       <r>   -31.1302     0.0000   192.0000 </r>
       <r>   -30.9539     0.0000   192.0000 </r>
       <r>   -30.7777     0.0000   192.0000 </r>
       <r>   -30.6014     0.0000   192.0000 </r>
       <r>   -30.4251     0.0000   192.0000 </r>
       <r>   -30.2489     0.0000   192.0000 </r>
       <r>   -30.0726     0.0000   192.0000 </r>
       <r>   -29.8963     0.0000   192.0000 </r>
       <r>   -29.7201     0.0000   192.0000 </r>
       <r>   -29.5438     0.0000   192.0000 </r>
       <r>   -29.3675     0.0000   192.0000 </r>
       <r>   -29.1913     0.0000   192.0000 </r>
       <r>   -29.0150     0.0000   192.0000 </r>
       <r>   -28.8388     0.0000   192.0000 </r>
       <r>   -28.6625     0.0000   192.0000 </r>
       <r>   -28.4862     0.0000   192.0000 </r>
       <r>   -28.3100     0.0000   192.0000 </r>
       <r>   -28.1337     0.0000   192.0000 </r>
       <r>   -27.9574     0.0000   192.0000 </r>
       <r>   -27.7812     0.0000   192.0000 </r>
       <r>   -27.6049     0.0000   192.0000 </r>
       <r>   -27.4287     0.0000   192.0000 </r>
       <r>   -27.2524     0.0000   192.0000 </r>
       <r>   -27.0761     0.0000   192.0000 </r>
       <r>   -26.8999     0.0000   192.0000 </r>
       <r>   -26.7236     0.0000   192.0000 </r>
       <r>   -26.5473     0.0000   192.0000 </r>
       <r>   -26.3711     0.0000   192.0000 </r>
       <r>   -26.1948     0.0000   192.0000 </r>
       <r>   -26.0185     0.0000   192.0000 </r>
       <r>   -25.8423     0.0000   192.0000 </r>
       <r>   -25.6660     0.0000   192.0000 </r>
       <r>   -25.4898     0.0000   192.0000 </r>
       <r>   -25.3135     0.0000   192.0000 </r>
       <r>   -25.1372     0.0000   192.0000 </r>
       <r>   -24.9610     0.0000   192.0000 </r>
       <r>   -24.7847     0.0000   192.0000 </r>
       <r>   -24.6084     0.0000   192.0000 </r>
       <r>   -24.4322     0.0000   192.0000 </r>
       <r>   -24.2559     0.0000   192.0000 </r>
       <r>   -24.0797     0.0000   192.0000 </r>
       <r>   -23.9034     0.0000   192.0000 </r>
       <r>   -23.7271     0.0000   192.0000 </r>
       <r>   -23.5509     0.0000   192.0000 </r>
       <r>   -23.3746     0.0000   192.0000 </r>
       <r>   -23.1983     0.0000   192.0000 </r>
       <r>   -23.0221     0.0000   192.0000 </r>
       <r>   -22.8458     0.0000   192.0000 </r>
       <r>   -22.6695     0.0000   192.0000 </r>
       <r>   -22.4933     0.0000   192.0000 </r>
       <r>   -22.3170     0.0000   192.0000 </r>
       <r>   -22.1408     0.0000   192.0000 </r>
       <r>   -21.9645     0.0000   192.0000 </r>
       <r>   -21.7882     0.0000   192.0000 </r>
       <r>   -21.6120     0.0000   192.0000 </r>
       <r>   -21.4357     0.0000   192.0000 </r>
       <r>   -21.2594     0.0000   192.0000 </r>
       <r>   -21.0832     0.0000   192.0000 </r>
       <r>   -20.9069     0.0000   192.0000 </r>
       <r>   -20.7307     0.0000   192.0000 </r>
       <r>   -20.5544     0.0000   192.0000 </r>
       <r>   -20.3781     0.0000   192.0000 </r>
       <r>   -20.2019     0.0000   192.0000 </r>
       <r>   -20.0256     0.0000   192.0000 </r>
       <r>   -19.8493     0.0000   192.0000 </r>
       <r>   -19.6731     0.0000   192.0000 </r>
       <r>   -19.4968     0.0000   192.0000 </r>
       <r>   -19.3205     0.0000   192.0000 </r>
       <r>   -19.1443     0.0000   192.0000 </r>
       <r>   -18.9680     0.0000   192.0000 </r>
       <r>   -18.7918     0.0000   192.0000 </r>
       <r>   -18.6155     0.0000   192.0000 </r>
       <r>   -18.4392     0.0000   192.0000 </r>
       <r>   -18.2630     0.0000   192.0000 </r>
       <r>   -18.0867     0.0000   192.0000 </r>
       <r>   -17.9104     0.0000   192.0000 </r>
       <r>   -17.7342     0.0000   192.0000 </r>
       <r>   -17.5579     0.0000   192.0000 </r>
       <r>   -17.3817     0.0000   192.0000 </r>
       <r>   -17.2054     0.0000   192.0000 </r>
       <r>   -17.0291     0.0000   192.0000 </r>
       <r>   -16.8529     0.0000   192.0000 </r>
       <r>   -16.6766     0.0000   192.0000 </r>
       <r>   -16.5003     0.0000   192.0000 </r>
       <r>   -16.3241     0.0000   192.0000 </r>
       <r>   -16.1478     0.0000   192.0000 </r>
       <r>   -15.9715     0.0000   192.0000 </r>
       <r>   -15.7953     0.0000   192.0000 </r>
       <r>   -15.6190     0.0000   192.0000 </r>
       <r>   -15.4428     0.0000   192.0000 </r>
       <r>   -15.2665     0.0000   192.0000 </r>
       <r>   -15.0902     0.0000   192.0000 </r>
       <r>   -14.9140     0.0000   192.0000 </r>
       <r>   -14.7377     0.0000   192.0000 </r>
       <r>   -14.5614     0.0000   192.0000 </r>
       <r>   -14.3852     0.0000   192.0000 </r>
       <r>   -14.2089     0.0000   192.0000 </r>
       <r>   -14.0327     0.0000   192.0000 </r>
       <r>   -13.8564     0.0000   192.0000 </r>
       <r>   -13.6801     0.0000   192.0000 </r>
       <r>   -13.5039     0.0000   192.0000 </r>
       <r>   -13.3276     0.0000   192.0000 </r>
       <r>   -13.1513     0.0000   192.0000 </r>
       <r>   -12.9751     0.0000   192.0000 </r>
       <r>   -12.7988     0.0000   192.0000 </r>
       <r>   -12.6225     0.0000   192.0000 </r>
       <r>   -12.4463     0.0000   192.0000 </r>
       <r>   -12.2700     0.0000   192.0000 </r>
       <r>   -12.0938     0.0000   192.0000 </r>
       <r>   -11.9175     0.0000   192.0000 </r>
       <r>   -11.7412     0.0000   192.0000 </r>
       <r>   -11.5650     0.0000   192.0000 </r>
       <r>   -11.3887     0.0000   192.0000 </r>
       <r>   -11.2124     0.0000   192.0000 </r>
       <r>   -11.0362     0.0000   192.0000 </r>
       <r>   -10.8599     0.0000   192.0000 </r>
       <r>   -10.6836     0.0000   192.0000 </r>
       <r>   -10.5074     0.0000   192.0000 </r>
       <r>   -10.3311     0.0000   192.0000 </r>
       <r>   -10.1549     0.0000   192.0000 </r>
       <r>    -9.9786     0.0000   192.0000 </r>
       <r>    -9.8023     0.0000   192.0000 </r>
       <r>    -9.6261     0.0000   192.0000 </r>
       <r>    -9.4498     0.0000   192.0000 </r>
       <r>    -9.2735     0.0000   192.0000 </r>
       <r>    -9.0973     1.4183   192.2500 </r>
       <r>    -8.9210     7.8002   193.6249 </r>
       <r>    -8.7448     0.5723   193.8509 </r>
       <r>    -8.5685     0.0343   196.7561 </r>
       <r>    -8.3922     0.0004   198.7501 </r>
       <r>    -8.2160     6.5231   201.3998 </r>
       <r>    -8.0397    34.0400   212.2500 </r>
       <r>    -7.8634     0.0001   212.2500 </r>
       <r>    -7.6872    10.5601   223.1114 </r>
       <r>    -7.5109    68.0790   241.7498 </r>
       <r>    -7.3346    28.3947   252.7549 </r>
       <r>    -7.1584     0.0000   256.0000 </r>
       <r>    -6.9821     0.0000   256.0000 </r>
       <r>    -6.8059     0.0000   256.0000 </r>
       <r>    -6.6296     0.0000   256.0000 </r>
       <r>    -6.4533     0.0000   256.0000 </r>
       <r>    -6.2771     0.0000   256.0000 </r>
       <r>    -6.1008     0.0000   256.0000 </r>
       <r>    -5.9245     0.0000   256.0000 </r>
       <r>    -5.7483     0.0000   256.0000 </r>
       <r>    -5.5720     0.0000   256.0000 </r>
       <r>    -5.3958     0.0000   256.0000 </r>
       <r>    -5.2195     0.0000   256.0000 </r>
       <r>    -5.0432     0.0000   256.0000 </r>
       <r>    -4.8670     0.0000   256.0000 </r>
       <r>    -4.6907     0.0000   256.0000 </r>
       <r>    -4.5144     0.0000   256.0000 </r>
       <r>    -4.3382     0.0000   256.0000 </r>
       <r>    -4.1619     0.0000   256.0000 </r>
       <r>    -3.9856     0.0000   256.0000 </r>
       <r>    -3.8094     0.0000   256.0000 </r>
       <r>    -3.6331     0.0000   256.0000 </r>
       <r>    -3.4569     0.0000   256.0000 </r>
       <r>    -3.2806     0.0000   256.0000 </r>
       <r>    -3.1043     0.0000   256.0000 </r>
       <r>    -2.9281     0.0000   256.0000 </r>
       <r>    -2.7518     0.0000   256.0000 </r>
       <r>    -2.5755     0.0000   256.0000 </r>
       <r>    -2.3993     0.0000   256.0000 </r>
       <r>    -2.2230     0.0000   256.0000 </r>
       <r>    -2.0468     0.0000   256.0000 </r>
       <r>    -1.8705     0.0000   256.0000 </r>
       <r>    -1.6942     0.0000   256.0000 </r>
       <r>    -1.5180     0.0000   256.0000 </r>
       <r>    -1.3417     3.1050   256.5473 </r>
       <r>    -1.1654     0.0000   257.0000 </r>
       <r>    -0.9892     0.0000   257.0000 </r>
       <r>    -0.8129     1.9507   263.3438 </r>
       <r>    -0.6366     4.2550   269.7500 </r>
       <r>    -0.4604    34.0507   275.7519 </r>
       <r>    -0.2841     0.0000   278.7500 </r>
       <r>    -0.1079    68.0800   304.2500 </r>
       <r>     0.0684     0.0000   304.2500 </r>
       <r>     0.2447     0.0000   304.2500 </r>
       <r>     0.4209    17.0200   310.2500 </r>
       <r>     0.5972    34.0400   322.2500 </r>
       <r>     0.7735     7.6033   323.5902 </r>
       <r>     0.9497     0.0000   324.2500 </r>
       <r>     1.1260     0.0000   325.7500 </r>
       <r>     1.3022    17.3206   330.3030 </r>
       <r>     1.4785    34.0400   345.2500 </r>
       <r>     1.6548     0.4834   354.3352 </r>
       <r>     1.8310     0.0000   357.2500 </r>
       <r>     2.0073    10.0198   360.5161 </r>
       <r>     2.1836    85.0997   379.7499 </r>
       <r>     2.3598     0.0000   388.7500 </r>
       <r>     2.5361    34.0400   400.7500 </r>
       <r>     2.7124    48.3222   409.2674 </r>
       <r>     2.8886    34.0400   417.2500 </r>
       <r>     3.0649    62.2503   437.2224 </r>
       <r>     3.2411     0.0000   437.2500 </r>
       <r>     3.4174     0.0000   444.2500 </r>
       <r>     3.5937    17.0200   447.2500 </r>
       <r>     3.7699     0.0000   448.0000 </r>
       <r>     3.9462     0.0000   448.0000 </r>
       <r>     4.1225     0.0000   448.0000 </r>
       <r>     4.2987     0.0000   448.0000 </r>
       <r>     4.4750     0.0000   448.0000 </r>
       <r>     4.6512     0.0000   448.0000 </r>
       <r>     4.8275     0.0000   448.0000 </r>
       <r>     5.0038     0.0000   448.0000 </r>
       <r>     5.1800     0.0000   448.0000 </r>
       <r>     5.3563     0.0000   448.0000 </r>
       <r>     5.5326     0.0000   448.0000 </r>
       <r>     5.7088     0.0000   448.0000 </r>
       <r>     5.8851     0.0000   448.0000 </r>
       <r>     6.0614     0.0000   448.0000 </r>
       <r>     6.2376     0.0000   448.0000 </r>
       <r>     6.4139     0.0170   448.0030 </r>
       <r>     6.5901     0.0000   448.7500 </r>
       <r>     6.7664     0.0000   448.7500 </r>
       <r>     6.9427     0.0000   448.7500 </r>
       <r>     7.1189     8.5100   450.2500 </r>
       <r>     7.2952     0.0000   450.2500 </r>
       <r>     7.4715     4.4796   451.0396 </r>
       <r>     7.6477     0.0000   456.5000 </r>
       <r>     7.8240     0.0025   456.5004 </r>
       <r>     8.0003     0.0062   457.2511 </r>
       <r>     8.1765    13.1396   471.5660 </r>
       <r>     8.3528     0.0000   471.7500 </r>
       <r>     8.5290     0.0000   471.7500 </r>
       <r>     8.7053     5.0605   476.1420 </r>
       <r>     8.8816     4.4342   477.5316 </r>
       <r>     9.0578    25.5300   499.2500 </r>
       <r>     9.2341    12.9165   506.0267 </r>
       <r>     9.4104     0.0000   518.7500 </r>
       <r>     9.5866    32.6217   524.7500 </r>
       <r>     9.7629    17.0200   527.7500 </r>
       <r>     9.9391     0.0000   527.7500 </r>
       <r>    10.1154     1.4183   532.2500 </r>
       <r>    10.2917     0.0000   532.2500 </r>
       <r>    10.4679     0.0000   535.2500 </r>
       <r>    10.6442     0.0000   536.0000 </r>
       <r>    10.8205     0.0000   536.0000 </r>
       <r>    10.9967     0.0000   536.0000 </r>
       <r>    11.1730     0.0000   536.0000 </r>
       <r>    11.3493     0.0000   536.0000 </r>
       <r>    11.5255     0.0000   536.0000 </r>
       <r>    11.7018     0.0000   536.0000 </r>
       <r>    11.8780     0.0000   536.0000 </r>
       <r>    12.0543     0.0000   536.0000 </r>
       <r>    12.2306     0.0000   536.0000 </r>
       <r>    12.4068     0.0000   536.0000 </r>
       <r>    12.5831     0.0000   536.0000 </r>
       <r>    12.7594     0.0000   536.0000 </r>
       <r>    12.9356     0.0000   536.0000 </r>
      </set>
     </set>
    </array>
   </total>
  </dos>
 </calculation>
 <structure name="finalpos" >
  <crystal>
   <varray name="basis" >
    <v>      10.32729006       0.00000000       0.00000000 </v>
    <v>       0.00000000      10.32729006       0.00000000 </v>
    <v>       0.00000000       0.00000000      10.32729006 </v>
   </varray>
   <i name="volume">   1101.43564041 </i>
   <varray name="rec_basis" >
    <v>       0.09683082       0.00000000       0.00000000 </v>
    <v>       0.00000000       0.09683082       0.00000000 </v>
    <v>       0.00000000       0.00000000       0.09683082 </v>
   </varray>
  </crystal>
  <varray name="positions" >
   <v>       0.00000000       0.00000000       0.00000000 </v>
   <v>       0.50000000       0.00000000       0.00000000 </v>
   <v>       0.00000000       0.50000000       0.00000000 </v>
   <v>       0.50000000       0.50000000       0.00000000 </v>
   <v>       0.00000000       0.00000000       0.50000000 </v>
   <v>       0.50000000       0.00000000       0.50000000 </v>
   <v>       0.00000000       0.50000000       0.50000000 </v>
   <v>       0.50000000       0.50000000       0.50000000 </v>
   <v>       0.00000000       0.25000000       0.25000000 </v>
   <v>       0.50000000       0.25000000       0.25000000 </v>
   <v>       0.00000000       0.75000000       0.25000000 </v>
   <v>       0.50000000       0.75000000       0.25000000 </v>
   <v>       0.00000000       0.25000000       0.75000000 </v>
   <v>       0.50000000       0.25000000       0.75000000 </v>
   <v>       0.00000000       0.75000000       0.75000000 </v>
   <v>       0.50000000       0.75000000       0.75000000 </v>
   <v>       0.25000000       0.00000000       0.25000000 </v>
   <v>       0.75000000       0.00000000       0.25000000 </v>
   <v>       0.25000000       0.50000000       0.25000000 </v>
   <v>       0.75000000       0.50000000       0.25000000 </v>
   <v>       0.25000000       0.00000000       0.75000000 </v>
   <v>       0.75000000       0.00000000       0.75000000 </v>
   <v>       0.25000000       0.50000000       0.75000000 </v>
   <v>       0.75000000       0.50000000       0.75000000 </v>
   <v>       0.25000000       0.25000000       0.00000000 </v>
   <v>       0.75000000       0.25000000       0.00000000 </v>
   <v>       0.25000000       0.75000000       0.00000000 </v>
   <v>       0.75000000       0.75000000       0.00000000 </v>
   <v>       0.25000000       0.25000000       0.50000000 </v>
   <v>       0.75000000       0.25000000       0.50000000 </v>
   <v>       0.25000000       0.75000000       0.50000000 </v>
   <v>       0.75000000       0.75000000       0.50000000 </v>
   <v>       0.25096831       0.00000000       0.00000000 </v>
   <v>       0.75000000       0.00000000       0.00000000 </v>
   <v>       0.25000000       0.50000000       0.00000000 </v>
   <v>       0.75000000       0.50000000       0.00000000 </v>
   <v>       0.25000000       0.00000000       0.50000000 </v>
   <v>       0.75000000       0.00000000       0.50000000 </v>
   <v>       0.25000000       0.50000000       0.50000000 </v>
   <v>       0.75000000       0.50000000       0.50000000 </v>
   <v>       0.25000000       0.25000000       0.25000000 </v>
   <v>       0.75000000       0.25000000       0.25000000 </v>
   <v>       0.25000000       0.75000000       0.25000000 </v>
   <v>       0.75000000       0.75000000       0.25000000 </v>
   <v>       0.25000000       0.25000000       0.75000000 </v>
   <v>       0.75000000       0.25000000       0.75000000 </v>
   <v>       0.25000000       0.75000000       0.75000000 </v>
   <v>       0.75000000       0.75000000       0.75000000 </v>
   <v>       0.00000000       0.00000000       0.25000000 </v>
   <v>       0.50000000       0.00000000       0.25000000 </v>
   <v>       0.00000000       0.50000000       0.25000000 </v>
   <v>       0.50000000       0.50000000       0.25000000 </v>
   <v>       0.00000000       0.00000000       0.75000000 </v>
   <v>       0.50000000       0.00000000       0.75000000 </v>
   <v>       0.00000000       0.50000000       0.75000000 </v>
   <v>       0.50000000       0.50000000       0.75000000 </v>
   <v>       0.00000000       0.25000000       0.00000000 </v>
   <v>       0.50000000       0.25000000       0.00000000 </v>
   <v>       0.00000000       0.75000000       0.00000000 </v>
   <v>       0.50000000       0.75000000       0.00000000 </v>
   <v>       0.00000000       0.25000000       0.50000000 </v>
   <v>       0.50000000       0.25000000       0.50000000 </v>
   <v>       0.00000000       0.75000000       0.50000000 </v>
   <v>       0.50000000       0.75000000       0.50000000 </v>
  </varray>
 </structure>
</modeling>
