       N       E                     dE             d eps       ncg     rms          rms(c)
DAV:   1     0.456931790013E+03    0.45693E+03   -0.34648E+04   904   0.153E+03
DAV:   2    -0.622205091982E+01   -0.46315E+03   -0.44934E+03   896   0.386E+02
DAV:   3    -0.367403827920E+02   -0.30518E+02   -0.30325E+02   828   0.985E+01
DAV:   4    -0.377012518887E+02   -0.96087E+00   -0.95852E+00   872   0.154E+01
DAV:   5    -0.377259205871E+02   -0.24669E-01   -0.24662E-01   860   0.239E+00    0.836E+00
DAV:   6    -0.363860188693E+02    0.13399E+01   -0.26854E+00   768   0.659E+00    0.617E+00
DAV:   7    -0.362263919945E+02    0.15963E+00   -0.74509E-01   932   0.333E+00    0.356E+00
DAV:   8    -0.362191424505E+02    0.72495E-02   -0.48185E-02   780   0.135E+00    0.106E+00
DAV:   9    -0.362183474118E+02    0.79504E-03   -0.23965E-03   876   0.266E-01    0.300E-01
DAV:  10    -0.362183775271E+02   -0.30115E-04   -0.55677E-04   896   0.108E-01    0.198E-02
DAV:  11    -0.362183739753E+02    0.35517E-05   -0.27619E-05   820   0.286E-02    0.234E-02
DAV:  12    -0.362183731990E+02    0.77631E-06   -0.19818E-06   880   0.672E-03    0.303E-03
DAV:  13    -0.362183731678E+02    0.31172E-07   -0.13320E-07   880   0.185E-03    0.132E-03
DAV:  14    -0.362183731366E+02    0.31281E-07   -0.98363E-09   808   0.428E-04    0.159E-03
DAV:  15    -0.362183731644E+02   -0.27808E-07   -0.57972E-09   688   0.359E-04    0.283E-04
DAV:  16    -0.362183731585E+02    0.58208E-08   -0.98997E-11   416   0.624E-05
   1 F= -.36218373E+02 E0= -.36218373E+02  d E =-.362184E+02
