 vasp.5.3.5 31Mar14 (build Nov 07 2014 11:36:17) complex                        
  
 executed on             LinuxIFC date 2015.10.15  01:05:52
 running on   20 total cores
 distrk:  each k-point on   20 cores,    1 groups
 distr:  one band on NCORES_PER_BAND=   5 cores,    4 groups


--------------------------------------------------------------------------------------------------------


 INCAR:
 POTCAR:    PAW_PBE Mg_pv 13Apr2007               
 POTCAR:    PAW_PBE S 06Sep2000                   
 POTCAR:    PAW_PBE Mg_pv 13Apr2007               
   VRHFIN =Mg: p6s2                                                             
   LEXCH  = PE                                                                  
   EATOM  =  1056.7344 eV,   77.6678 Ry                                         
                                                                                
   TITEL  = PAW_PBE Mg_pv 13Apr2007                                             
   LULTRA =        F    use ultrasoft PP ?                                      
   IUNSCR =        1    unscreen: 0-lin 1-nonlin 2-no                           
   RPACOR =    1.500    partial core radius                                     
   POMASS =   24.305; ZVAL   =    8.000    mass and valenz                      
   RCORE  =    2.000    outmost cutoff radius                                   
   RWIGS  =    2.000; RWIGS  =    1.058    wigner-seitz radius (au A)           
   ENMAX  =  403.929; ENMIN  =  302.947 eV                                      
   RCLOC  =    1.506    cutoff for local pot                                    
   LCOR   =        T    correct aug charges                                     
   LPAW   =        T    paw PP                                                  
   EAUG   =  758.780                                                            
   DEXC   =    0.000                                                            
   RMAX   =    2.045    core radius for proj-oper                               
   RAUG   =    1.300    factor for augmentation sphere                          
   RDEP   =    2.025    radius for radial grids                                 
   RDEPT  =    1.557    core radius for aug-charge                              
                                                                                
   Atomic configuration                                                         
    5 entries                                                                   
     n  l   j            E        occ.                                          
     1  0  0.50     -1259.6230   2.0000                                         
     2  0  0.50       -79.8442   2.0000                                         
     2  1  1.50       -46.6121   6.0000                                         
     3  0  0.50        -4.7055   2.0000                                         
     3  2  1.50        -1.3606   0.0000                                         
   Description                                                                  
     l       E           TYP  RCUT    TYP  RCUT                                 
     1    -46.6121073     23  1.600                                             
     1      2.7211652     23  1.600                                             
     0     -4.7054661     23  2.000                                             
     0     61.2262170     23  2.000                                             
     2     -1.3605826     23  2.000                                             
  local pseudopotential read in
  partial core-charges read in
  partial kinetic energy density read in
  atomic valenz-charges read in
  non local Contribution for L=           1  read in
    real space projection operators read in
  non local Contribution for L=           1  read in
    real space projection operators read in
  non local Contribution for L=           0  read in
    real space projection operators read in
  non local Contribution for L=           0  read in
    real space projection operators read in
  non local Contribution for L=           2  read in
    real space projection operators read in
    PAW grid and wavefunctions read in
 
   number of l-projection  operators is LMAX  =           5
   number of lm-projection operators is LMMAX =          13
 
 POTCAR:    PAW_PBE S 06Sep2000                   
   VRHFIN =S : s2p4                                                             
   LEXCH  = PE                                                                  
   EATOM  =   276.8230 eV,   20.3459 Ry                                         
                                                                                
   TITEL  = PAW_PBE S 06Sep2000                                                 
   LULTRA =        F    use ultrasoft PP ?                                      
   IUNSCR =        1    unscreen: 0-lin 1-nonlin 2-no                           
   RPACOR =    1.500    partial core radius                                     
   POMASS =   32.066; ZVAL   =    6.000    mass and valenz                      
   RCORE  =    1.900    outmost cutoff radius                                   
   RWIGS  =    2.200; RWIGS  =    1.164    wigner-seitz radius (au A)           
   ENMAX  =  258.689; ENMIN  =  194.016 eV                                      
   ICORE  =        2    local potential                                         
   LCOR   =        T    correct aug charges                                     
   LPAW   =        T    paw PP                                                  
   EAUG   =  335.092                                                            
   DEXC   =    0.000                                                            
   RMAX   =    1.942    core radius for proj-oper                               
   RAUG   =    1.300    factor for augmentation sphere                          
   RDEP   =    1.954    radius for radial grids                                 
   RDEPT  =    1.744    core radius for aug-charge                              
                                                                                
   Atomic configuration                                                         
    6 entries                                                                   
     n  l   j            E        occ.                                          
     1  0  0.50     -2405.8406   2.0000                                         
     2  0  0.50      -211.7007   2.0000                                         
     2  1  1.50      -156.4958   6.0000                                         
     3  0  0.50       -17.2562   2.0000                                         
     3  1  0.50        -7.0085   4.0000                                         
     3  2  1.50        -6.8029   0.0000                                         
   Description                                                                  
     l       E           TYP  RCUT    TYP  RCUT                                 
     0    -17.2561641     23  1.900                                             
     0    -15.8743224     23  1.900                                             
     1     -7.0085400     23  1.900                                             
     1     -2.7779785     23  1.900                                             
     2     -6.8029130     23  1.900                                             
  local pseudopotential read in
  partial core-charges read in
  partial kinetic energy density read in
  atomic valenz-charges read in
  non local Contribution for L=           0  read in
    real space projection operators read in
  non local Contribution for L=           0  read in
    real space projection operators read in
  non local Contribution for L=           1  read in
    real space projection operators read in
  non local Contribution for L=           1  read in
    real space projection operators read in
    PAW grid and wavefunctions read in
 
   number of l-projection  operators is LMAX  =           4
   number of lm-projection operators is LMMAX =           8
 

 ----------------------------------------------------------------------------- 
|                                                                             |
|  ADVICE TO THIS USER RUNNING 'VASP/VAMP'   (HEAR YOUR MASTER'S VOICE ...):  |
|                                                                             |
|      You enforced a specific xc-type in the INCAR file,                     |
|      a different type was found on the POTCAR file                          |
|          I HOPE YOU KNOW, WHAT YOU ARE  DOING                               |
|                                                                             |
 ----------------------------------------------------------------------------- 

  PAW_PBE Mg_pv 13Apr2007               :
 energy of atom  1       EATOM=-1056.7344
 kinetic energy error for atom=    0.0336 (will be added to EATOM!!)
  PAW_PBE S 06Sep2000                   :
 energy of atom  2       EATOM= -276.8230
 kinetic energy error for atom=    0.0015 (will be added to EATOM!!)
 
 
 POSCAR:  Mg S                                   
  positions in direct lattice
  No initial velocities read in
 exchange correlation table for  LEXCH =       14
   RHO(1)=    0.500       N(1)  =     2000
   RHO(2)=  100.500       N(2)  =     4000
 


--------------------------------------------------------------------------------------------------------


 ion  position               nearest neighbor table
   1  0.000  0.000  0.000-   5 2.61   7 2.61   8 2.61   7 2.61   8 2.61   5 2.61
   2  0.000  0.500  0.500-   6 2.61   7 2.61   8 2.61   8 2.61   7 2.61   6 2.61
   3  0.500  0.000  0.500-   5 2.61   6 2.61   7 2.61   5 2.61   6 2.61   7 2.61
   4  0.500  0.500  0.000-   5 2.61   6 2.61   8 2.61   6 2.61   5 2.61   8 2.61
   5  0.500  0.000  0.000-   1 2.61   3 2.61   4 2.61   3 2.61   4 2.61   1 2.61
   6  0.500  0.500  0.500-   2 2.61   3 2.61   4 2.61   4 2.61   3 2.61   2 2.61
   7  0.000  0.000  0.500-   1 2.61   2 2.61   3 2.61   1 2.61   2 2.61   3 2.61
   8  0.000  0.500  0.000-   1 2.61   2 2.61   4 2.61   2 2.61   1 2.61   4 2.61
 
  LATTYP: Found a simple cubic cell.
 ALAT       =     5.2152849083
  
  Lattice vectors:
  
 A1 = (   5.2152849083,   0.0000000000,   0.0000000000)
 A2 = (   0.0000000000,   5.2152849083,   0.0000000000)
 A3 = (   0.0000000000,   0.0000000000,   5.2152849083)


Analysis of symmetry for initial positions (statically):
=====================================================================
 Subroutine PRICEL returns following result:
 
  LATTYP: Found a face centered cubic cell.
 ALAT       =     5.2152849083
  
  Lattice vectors:
  
 A1 = (   2.6076424541,   2.6076424541,   0.0000000000)
 A2 = (   2.6076424541,   0.0000000000,  -2.6076424541)
 A3 = (   0.0000000000,   2.6076424541,  -2.6076424541)
 
   4 primitive cells build up your supercell.
 

 Routine SETGRP: Setting up the symmetry group for a 
 simple cubic supercell.


 Subroutine GETGRP returns: Found 48 space group operations
 (whereof 48 operations were pure point group operations)
 out of a pool of 48 trial point group operations.


The static configuration has the point symmetry O_h .


Analysis of symmetry for dynamics (positions and initial velocities):
=====================================================================
 Subroutine PRICEL returns following result:
 
  LATTYP: Found a face centered cubic cell.
 ALAT       =     5.2152849083
  
  Lattice vectors:
  
 A1 = (   2.6076424541,   2.6076424541,   0.0000000000)
 A2 = (   2.6076424541,   0.0000000000,  -2.6076424541)
 A3 = (   0.0000000000,   2.6076424541,  -2.6076424541)
 
   4 primitive cells build up your supercell.
 

 Routine SETGRP: Setting up the symmetry group for a 
 simple cubic supercell.


 Subroutine GETGRP returns: Found 48 space group operations
 (whereof 48 operations were pure point group operations)
 out of a pool of 48 trial point group operations.


The dynamic configuration has the point symmetry O_h .
 
 
 KPOINTS: Automatic mesh                          

Automatic generation of k-mesh.
Space group operators:
 irot       det(A)        alpha          n_x          n_y          n_z        tau_x        tau_y        tau_z
    1     1.000000     0.000000     1.000000     0.000000     0.000000     0.000000     0.000000     0.000000
    2    -1.000000     0.000000     1.000000     0.000000     0.000000     0.000000     0.000000     0.000000
    3     1.000000   120.000000    -0.577350    -0.577350    -0.577350     0.000000     0.000000     0.000000
    4    -1.000000   120.000000    -0.577350    -0.577350    -0.577350     0.000000     0.000000     0.000000
    5     1.000000   120.000000     0.577350     0.577350     0.577350     0.000000     0.000000     0.000000
    6    -1.000000   120.000000     0.577350     0.577350     0.577350     0.000000     0.000000     0.000000
    7     1.000000    90.000000     0.000000     0.000000    -1.000000     0.000000     0.000000     0.000000
    8    -1.000000    90.000000     0.000000     0.000000    -1.000000     0.000000     0.000000     0.000000
    9     1.000000   180.000000     0.000000     0.707107     0.707107     0.000000     0.000000     0.000000
   10    -1.000000   180.000000     0.000000     0.707107     0.707107     0.000000     0.000000     0.000000
   11     1.000000    90.000000     0.000000     1.000000     0.000000     0.000000     0.000000     0.000000
   12    -1.000000    90.000000     0.000000     1.000000     0.000000     0.000000     0.000000     0.000000
   13     1.000000   179.999999     0.000000     0.000000     1.000000     0.000000     0.000000     0.000000
   14    -1.000000   179.999999     0.000000     0.000000     1.000000     0.000000     0.000000     0.000000
   15     1.000000   120.000000    -0.577350     0.577350     0.577350     0.000000     0.000000     0.000000
   16    -1.000000   120.000000    -0.577350     0.577350     0.577350     0.000000     0.000000     0.000000
   17     1.000000   120.000000    -0.577350     0.577350    -0.577350     0.000000     0.000000     0.000000
   18    -1.000000   120.000000    -0.577350     0.577350    -0.577350     0.000000     0.000000     0.000000
   19     1.000000    90.000000     0.000000     0.000000     1.000000     0.000000     0.000000     0.000000
   20    -1.000000    90.000000     0.000000     0.000000     1.000000     0.000000     0.000000     0.000000
   21     1.000000    90.000000    -1.000000     0.000000     0.000000     0.000000     0.000000     0.000000
   22    -1.000000    90.000000    -1.000000     0.000000     0.000000     0.000000     0.000000     0.000000
   23     1.000000   180.000000     0.707107     0.000000     0.707107     0.000000     0.000000     0.000000
   24    -1.000000   180.000000     0.707107     0.000000     0.707107     0.000000     0.000000     0.000000
   25     1.000000   120.000000     0.577350    -0.577350     0.577350     0.000000     0.000000     0.000000
   26    -1.000000   120.000000     0.577350    -0.577350     0.577350     0.000000     0.000000     0.000000
   27     1.000000   120.000000    -0.577350    -0.577350     0.577350     0.000000     0.000000     0.000000
   28    -1.000000   120.000000    -0.577350    -0.577350     0.577350     0.000000     0.000000     0.000000
   29     1.000000   180.000000     1.000000     0.000000     0.000000     0.000000     0.000000     0.000000
   30    -1.000000   180.000000     1.000000     0.000000     0.000000     0.000000     0.000000     0.000000
   31     1.000000    90.000000     0.000000    -1.000000     0.000000     0.000000     0.000000     0.000000
   32    -1.000000    90.000000     0.000000    -1.000000     0.000000     0.000000     0.000000     0.000000
   33     1.000000   180.000000     0.707107     0.707107     0.000000     0.000000     0.000000     0.000000
   34    -1.000000   180.000000     0.707107     0.707107     0.000000     0.000000     0.000000     0.000000
   35     1.000000    90.000000     1.000000     0.000000     0.000000     0.000000     0.000000     0.000000
   36    -1.000000    90.000000     1.000000     0.000000     0.000000     0.000000     0.000000     0.000000
   37     1.000000   120.000000     0.577350    -0.577350    -0.577350     0.000000     0.000000     0.000000
   38    -1.000000   120.000000     0.577350    -0.577350    -0.577350     0.000000     0.000000     0.000000
   39     1.000000   180.000000     0.000000     1.000000     0.000000     0.000000     0.000000     0.000000
   40    -1.000000   180.000000     0.000000     1.000000     0.000000     0.000000     0.000000     0.000000
   41     1.000000   120.000000     0.577350     0.577350    -0.577350     0.000000     0.000000     0.000000
   42    -1.000000   120.000000     0.577350     0.577350    -0.577350     0.000000     0.000000     0.000000
   43     1.000000   180.000000     0.000000    -0.707107     0.707107     0.000000     0.000000     0.000000
   44    -1.000000   180.000000     0.000000    -0.707107     0.707107     0.000000     0.000000     0.000000
   45     1.000000   180.000000     0.707107    -0.707107     0.000000     0.000000     0.000000     0.000000
   46    -1.000000   180.000000     0.707107    -0.707107     0.000000     0.000000     0.000000     0.000000
   47     1.000000   180.000000     0.707107     0.000000    -0.707107     0.000000     0.000000     0.000000
   48    -1.000000   180.000000     0.707107     0.000000    -0.707107     0.000000     0.000000     0.000000
 
 Subroutine IBZKPT returns following result:
 ===========================================
 
 Found     10 irreducible k-points:
 
 Following reciprocal coordinates:
            Coordinates               Weight
  0.000000  0.000000  0.000000      1.000000
  0.250000  0.000000  0.000000      6.000000
  0.500000  0.000000  0.000000      3.000000
  0.250000  0.250000  0.000000     12.000000
  0.500000  0.250000  0.000000     12.000000
  0.500000  0.500000  0.000000      3.000000
  0.250000  0.250000  0.250000      8.000000
  0.500000  0.250000  0.250000     12.000000
  0.500000  0.500000  0.250000      6.000000
  0.500000  0.500000  0.500000      1.000000
 
 Following cartesian coordinates:
            Coordinates               Weight
  0.000000  0.000000  0.000000      1.000000
  0.047936  0.000000  0.000000      6.000000
  0.095872  0.000000  0.000000      3.000000
  0.047936  0.047936  0.000000     12.000000
  0.095872  0.047936  0.000000     12.000000
  0.095872  0.095872  0.000000      3.000000
  0.047936  0.047936  0.047936      8.000000
  0.095872  0.047936  0.047936     12.000000
  0.095872  0.095872  0.047936      6.000000
  0.095872  0.095872  0.095872      1.000000
 


--------------------------------------------------------------------------------------------------------




 Dimension of arrays:
   k-points           NKPTS =     10   k-points in BZ     NKDIM =     10   number of bands    NBANDS=     36
   number of dos      NEDOS =    301   number of ions     NIONS =      8
   non local maximal  LDIM  =      5   non local SUM 2l+1 LMDIM =     13
   total plane-waves  NPLWV =  64000
   max r-space proj   IRMAX =      1   max aug-charges    IRDMAX= 113900
   dimension x,y,z NGX =    40 NGY =   40 NGZ =   40
   dimension x,y,z NGXF=    80 NGYF=   80 NGZF=   80
   support grid    NGXF=   160 NGYF=  160 NGZF=  160
   ions per type =               4   4
 NGX,Y,Z   is equivalent  to a cutoff of  12.75, 12.75, 12.75 a.u.
 NGXF,Y,Z  is equivalent  to a cutoff of  25.50, 25.50, 25.50 a.u.


 I would recommend the setting:
   dimension x,y,z NGX =    39 NGY =   39 NGZ =   39
 SYSTEM =  unknown system                          
 POSCAR =   Mg S                                   

 Startparameter for this run:
   NWRITE =      2    write-flag & timer
   PREC   = accura    normal or accurate (medium, high low for compatibility)
   ISTART =      0    job   : 0-new  1-cont  2-samecut
   ICHARG =      2    charge: 1-file 2-atom 10-const
   ISPIN  =      1    spin polarized calculation?
   LNONCOLLINEAR =      F non collinear calculations
   LSORBIT =      F    spin-orbit coupling
   INIWAV =      1    electr: 0-lowe 1-rand  2-diag
   LASPH  =      F    aspherical Exc in radial PAW
   METAGGA=      F    non-selfconsistent MetaGGA calc.

 Electronic Relaxation 1
   ENCUT  =  525.1 eV  38.59 Ry    6.21 a.u.   9.74  9.74  9.74*2*pi/ulx,y,z
   ENINI  =  525.1     initial cutoff
   ENAUG  =  758.8 eV  augmentation charge cutoff
   NELM   =     60;   NELMIN=  5; NELMDL= -5     # of ELM steps 
   EDIFF  = 0.1E-07   stopping-criterion for ELM
   LREAL  =      F    real-space projection
   NLSPLINE    = F    spline interpolate recip. space projectors
   LCOMPAT=      F    compatible to vasp.4.4
   GGA_COMPAT  = T    GGA compatible to vasp.4.4-vasp.4.6
   LMAXPAW     = -100 max onsite density
   LMAXMIX     =    2 max onsite mixed and CHGCAR
   VOSKOWN=      0    Vosko Wilk Nusair interpolation
   ROPT   =    0.00000   0.00000
 Ionic relaxation
   EDIFFG = -.1E-07   stopping-criterion for IOM
   NSW    =     20    number of steps for IOM
   NBLOCK =      1;   KBLOCK =     20    inner block; outer block 
   IBRION =      2    ionic relax: 0-MD 1-quasi-New 2-CG
   NFREE  =      1    steps in history (QN), initial steepest desc. (CG)
   ISIF   =      4    stress and relaxation
   IWAVPR =     11    prediction:  0-non 1-charg 2-wave 3-comb
   ISYM   =      2    0-nonsym 1-usesym 2-fastsym
   LCORR  =      T    Harris-Foulkes like correction to forces

   POTIM  = 0.5000    time-step for ionic-motion
   TEIN   =    0.0    initial temperature
   TEBEG  =    0.0;   TEEND  =   0.0 temperature during run
   SMASS  =  -3.00    Nose mass-parameter (am)
   estimated Nose-frequenzy (Omega)   =  0.10E-29 period in steps =****** mass=  -0.622E-27a.u.
   SCALEE = 1.0000    scale energy and forces
   NPACO  =    256;   APACO  = 16.0  distance and # of slots for P.C.
   PSTRESS=    0.0 pullay stress

  Mass of Ions in am
   POMASS =  24.30 32.07
  Ionic Valenz
   ZVAL   =   8.00  6.00
  Atomic Wigner-Seitz radii
   RWIGS  =  -1.00 -1.00
  virtual crystal weights 
   VCA    =   1.00  1.00
   NELECT =      56.0000    total number of electrons
   NUPDOWN=      -1.0000    fix difference up-down

 DOS related values:
   EMIN   =  10.00;   EMAX   =-10.00  energy-range for DOS
   EFERMI =   0.00
   ISMEAR =     0;   SIGMA  =   0.01  broadening in eV -4-tet -1-fermi 0-gaus

 Electronic relaxation 2 (details)
   IALGO  =     38    algorithm
   LDIAG  =      T    sub-space diagonalisation (order eigenvalues)
   LSUBROT=      F    optimize rotation matrix (better conditioning)
   TURBO    =      0    0=normal 1=particle mesh
   IRESTART =      0    0=no restart 2=restart with 2 vectors
   NREBOOT  =      0    no. of reboots
   NMIN     =      0    reboot dimension
   EREF     =   0.00    reference energy to select bands
   IMIX   =      4    mixing-type and parameters
     AMIX     =   0.40;   BMIX     =  1.00
     AMIX_MAG =   1.60;   BMIX_MAG =  1.00
     AMIN     =   0.10
     WC   =   100.;   INIMIX=   1;  MIXPRE=   1;  MAXMIX= -45

 Intra band minimization:
   WEIMIN = 0.0010     energy-eigenvalue tresh-hold
   EBREAK =  0.69E-11  absolut break condition
   DEPER  =   0.30     relativ break condition  

   TIME   =   0.40     timestep for ELM

  volume/ion in A,a.u.               =      17.73       119.66
  Fermi-wavevector in a.u.,A,eV,Ry     =   1.200953  2.269473 19.623532  1.442289
  Thomas-Fermi vector in A             =   2.336775
 
 Write flags
   LWAVE  =      F    write WAVECAR
   LCHARG =      F    write CHGCAR
   LVTOT  =      F    write LOCPOT, total local potential
   LVHAR  =      F    write LOCPOT, Hartree potential only
   LELF   =      F    write electronic localiz. function (ELF)
   LORBIT =      0    0 simple, 1 ext, 2 COOP (PROOUT)


 Dipole corrections
   LMONO  =      F    monopole corrections only (constant potential shift)
   LDIPOL =      F    correct potential (dipole corrections)
   IDIPOL =      0    1-x, 2-y, 3-z, 4-all directions 
   EPSILON=  1.0000000 bulk dielectric constant

 Exchange correlation treatment:
   GGA     =    PS    GGA type
   LEXCH   =    14    internal setting for exchange type
   VOSKOWN=      0    Vosko Wilk Nusair interpolation
   LHFCALC =     F    Hartree Fock is set to
   LHFONE  =     F    Hartree Fock one center treatment
   AEXX    =    0.0000 exact exchange contribution

 Linear response parameters
   LEPSILON=     F    determine dielectric tensor
   LRPA    =     F    only Hartree local field effects (RPA)
   LNABLA  =     F    use nabla operator in PAW spheres
   LVEL    =     F    velocity operator in full k-point grid
   LINTERFAST=   F  fast interpolation
   KINTER  =     0    interpolate to denser k-point grid
   CSHIFT  =0.1000    complex shift for real part using Kramers Kronig
   OMEGAMAX=  -1.0    maximum frequency
   DEG_THRESHOLD= 0.2000000E-02 threshold for treating states as degnerate
   RTIME   =    0.100 relaxation time in fs

 Orbital magnetization related:
   ORBITALMAG=     F  switch on orbital magnetization
   LCHIMAG   =     F  perturbation theory with respect to B field
   DQ        =  0.001000  dq finite difference perturbation B field



--------------------------------------------------------------------------------------------------------


 conjugate gradient relaxation of ions
 charge density and potential will be updated during run
 non-spin polarized calculation
 Variant of blocked Davidson
 Davidson routine will perform the subspace rotation
 perform sub-space diagonalisation
    after iterative eigenvector-optimisation
 modified Broyden-mixing scheme, WC =      100.0
 initial mixing is a Kerker type mixing with AMIX =  0.4000 and BMIX =      1.0000
 Hartree-type preconditioning will be used
 using additional bands            8
 reciprocal scheme for non local part
 use partial core corrections
 calculate Harris-corrections to forces 
   (improved forces if not selfconsistent)
 use gradient corrections 
 use of overlap-Matrix (Vanderbilt PP)
 Gauss-broadening in eV      SIGMA  =   0.01


--------------------------------------------------------------------------------------------------------


  energy-cutoff  :      525.11
  volume of cell :      141.85
      direct lattice vectors                 reciprocal lattice vectors
     5.215284908  0.000000000  0.000000000     0.191744079  0.000000000  0.000000000
     0.000000000  5.215284908  0.000000000     0.000000000  0.191744079  0.000000000
     0.000000000  0.000000000  5.215284908     0.000000000  0.000000000  0.191744079

  length of vectors
     5.215284908  5.215284908  5.215284908     0.191744079  0.191744079  0.191744079


 
 k-points in units of 2pi/SCALE and weight: Automatic mesh                          
   0.00000000  0.00000000  0.00000000       0.016
   0.04793602  0.00000000  0.00000000       0.094
   0.09587204  0.00000000  0.00000000       0.047
   0.04793602  0.04793602  0.00000000       0.188
   0.09587204  0.04793602  0.00000000       0.188
   0.09587204  0.09587204  0.00000000       0.047
   0.04793602  0.04793602  0.04793602       0.125
   0.09587204  0.04793602  0.04793602       0.188
   0.09587204  0.09587204  0.04793602       0.094
   0.09587204  0.09587204  0.09587204       0.016
 
 k-points in reciprocal lattice and weights: Automatic mesh                          
   0.00000000  0.00000000  0.00000000       0.016
   0.25000000  0.00000000  0.00000000       0.094
   0.50000000  0.00000000  0.00000000       0.047
   0.25000000  0.25000000  0.00000000       0.188
   0.50000000  0.25000000  0.00000000       0.188
   0.50000000  0.50000000  0.00000000       0.047
   0.25000000  0.25000000  0.25000000       0.125
   0.50000000  0.25000000  0.25000000       0.188
   0.50000000  0.50000000  0.25000000       0.094
   0.50000000  0.50000000  0.50000000       0.016
 
 position of ions in fractional coordinates (direct lattice) 
   0.00000000  0.00000000  0.00000000
   0.00000000  0.50000000  0.50000000
   0.50000000  0.00000000  0.50000000
   0.50000000  0.50000000  0.00000000
   0.50000000  0.00000000  0.00000000
   0.50000000  0.50000000  0.50000000
   0.00000000  0.00000000  0.50000000
   0.00000000  0.50000000  0.00000000
 
 position of ions in cartesian coordinates  (Angst):
   0.00000000  0.00000000  0.00000000
   0.00000000  2.60764245  2.60764245
   2.60764245  0.00000000  2.60764245
   2.60764245  2.60764245  0.00000000
   2.60764245  0.00000000  0.00000000
   2.60764245  2.60764245  2.60764245
   0.00000000  0.00000000  2.60764245
   0.00000000  2.60764245  0.00000000
 


--------------------------------------------------------------------------------------------------------


 k-point  1 :   0.0000 0.0000 0.0000  plane waves:    3887
 k-point  2 :   0.2500 0.0000 0.0000  plane waves:    3867
 k-point  3 :   0.5000 0.0000 0.0000  plane waves:    3868
 k-point  4 :   0.2500 0.2500 0.0000  plane waves:    3874
 k-point  5 :   0.5000 0.2500 0.0000  plane waves:    3894
 k-point  6 :   0.5000 0.5000 0.0000  plane waves:    3900
 k-point  7 :   0.2500 0.2500 0.2500  plane waves:    3872
 k-point  8 :   0.5000 0.2500 0.2500  plane waves:    3872
 k-point  9 :   0.5000 0.5000 0.2500  plane waves:    3848
 k-point 10 :   0.5000 0.5000 0.5000  plane waves:    3912

 maximum and minimum number of plane-waves per node :       806      750

 maximum number of plane-waves:      3912
 maximum index in each direction: 
   IXMAX=    9   IYMAX=    9   IZMAX=    9
   IXMIN=  -10   IYMIN=  -10   IZMIN=  -10

 NGX is ok and might be reduce to  40
 NGY is ok and might be reduce to  40
 NGZ is ok and might be reduce to  40

 parallel 3D FFT for wavefunctions:
    minimum data exchange during FFTs selected (reduces bandwidth)
 parallel 3D FFT for charge:
    minimum data exchange during FFTs selected (reduces bandwidth)


 total amount of memory used by VASP on root node    39026. kBytes
========================================================================

   base      :      30000. kBytes
   nonl-proj :       1722. kBytes
   fftplans  :       4155. kBytes
   grid      :       1976. kBytes
   one-center:         16. kBytes
   wavefun   :       1157. kBytes
 
     INWAV:  cpu time    0.00: real time    0.00
 Broyden mixing: mesh for mixing (old mesh)
   NGX = 19   NGY = 19   NGZ = 19
  (NGX  = 80   NGY  = 80   NGZ  = 80)
  gives a total of   6859 points

 initial charge density was supplied:
 charge density of overlapping atoms calculated
 number of electron      56.0000000 magnetization 
 keeping initial charge density in first step


--------------------------------------------------------------------------------------------------------


 Maximum index for augmentation-charges         5851 (set IRDMAX)


--------------------------------------------------------------------------------------------------------


 First call to EWALD:  gamma=   0.340
 Maximum number of real-space cells 3x 3x 3
 Maximum number of reciprocal cells 3x 3x 3

 FEWALD executed in parallel
    FEWALD:  cpu time    0.00: real time    0.00


----------------------------------------- Iteration    1(   1)  ---------------------------------------


    POTLOK:  cpu time    0.02: real time    0.02
    SETDIJ:  cpu time    0.03: real time    0.03
     EDDAV:  cpu time    0.32: real time    0.32
       DOS:  cpu time    0.00: real time    0.00
    --------------------------------------------
      LOOP:  cpu time    0.37: real time    0.38

 eigenvalue-minimisations  :   904
 total energy-change (2. order) : 0.4569318E+03  (-0.3464796E+04)
 number of electron      56.0000000 magnetization 
 augmentation part       56.0000000 magnetization 

 Free energy of the ion-electron system (eV)
  ---------------------------------------------------
  alpha Z        PSCENC =       149.68198211
  Ewald energy   TEWEN  =     -3109.52470188
  -Hartree energ DENC   =     -1173.24357592
  -exchange      EXHF   =         0.00000000
  -V(xc)+E(xc)   XCENC  =       159.08860661
  PAW double counting   =      3462.71711756    -3919.80126840
  entropy T*S    EENTRO =        -0.00192109
  eigenvalues    EBANDS =      -433.68987949
  atomic energy  EATOM  =      5321.70543053
  ---------------------------------------------------
  free energy    TOTEN  =       456.93179001 eV

  energy without entropy =      456.93371111  energy(sigma->0) =      456.93275056


--------------------------------------------------------------------------------------------------------




----------------------------------------- Iteration    1(   2)  ---------------------------------------


     EDDAV:  cpu time    0.27: real time    0.27
       DOS:  cpu time    0.00: real time    0.00
    --------------------------------------------
      LOOP:  cpu time    0.28: real time    0.28

 eigenvalue-minimisations  :   896
 total energy-change (2. order) :-0.4631538E+03  (-0.4493387E+03)
 number of electron      56.0000000 magnetization 
 augmentation part       56.0000000 magnetization 

 Free energy of the ion-electron system (eV)
  ---------------------------------------------------
  alpha Z        PSCENC =       149.68198211
  Ewald energy   TEWEN  =     -3109.52470188
  -Hartree energ DENC   =     -1173.24357592
  -exchange      EXHF   =         0.00000000
  -V(xc)+E(xc)   XCENC  =       159.08860661
  PAW double counting   =      3462.71711756    -3919.80126840
  entropy T*S    EENTRO =         0.00000000
  eigenvalues    EBANDS =      -896.84564152
  atomic energy  EATOM  =      5321.70543053
  ---------------------------------------------------
  free energy    TOTEN  =        -6.22205092 eV

  energy without entropy =       -6.22205092  energy(sigma->0) =       -6.22205092


--------------------------------------------------------------------------------------------------------




----------------------------------------- Iteration    1(   3)  ---------------------------------------


     EDDAV:  cpu time    0.26: real time    0.26
       DOS:  cpu time    0.00: real time    0.00
    --------------------------------------------
      LOOP:  cpu time    0.26: real time    0.26

 eigenvalue-minimisations  :   828
 total energy-change (2. order) :-0.3051833E+02  (-0.3032484E+02)
 number of electron      56.0000000 magnetization 
 augmentation part       56.0000000 magnetization 

 Free energy of the ion-electron system (eV)
  ---------------------------------------------------
  alpha Z        PSCENC =       149.68198211
  Ewald energy   TEWEN  =     -3109.52470188
  -Hartree energ DENC   =     -1173.24357592
  -exchange      EXHF   =         0.00000000
  -V(xc)+E(xc)   XCENC  =       159.08860661
  PAW double counting   =      3462.71711756    -3919.80126840
  entropy T*S    EENTRO =         0.00000000
  eigenvalues    EBANDS =      -927.36397339
  atomic energy  EATOM  =      5321.70543053
  ---------------------------------------------------
  free energy    TOTEN  =       -36.74038279 eV

  energy without entropy =      -36.74038279  energy(sigma->0) =      -36.74038279


--------------------------------------------------------------------------------------------------------




----------------------------------------- Iteration    1(   4)  ---------------------------------------


     EDDAV:  cpu time    0.27: real time    0.27
       DOS:  cpu time    0.00: real time    0.00
    --------------------------------------------
      LOOP:  cpu time    0.27: real time    0.27

 eigenvalue-minimisations  :   872
 total energy-change (2. order) :-0.9608691E+00  (-0.9585237E+00)
 number of electron      56.0000000 magnetization 
 augmentation part       56.0000000 magnetization 

 Free energy of the ion-electron system (eV)
  ---------------------------------------------------
  alpha Z        PSCENC =       149.68198211
  Ewald energy   TEWEN  =     -3109.52470188
  -Hartree energ DENC   =     -1173.24357592
  -exchange      EXHF   =         0.00000000
  -V(xc)+E(xc)   XCENC  =       159.08860661
  PAW double counting   =      3462.71711756    -3919.80126840
  entropy T*S    EENTRO =         0.00000000
  eigenvalues    EBANDS =      -928.32484249
  atomic energy  EATOM  =      5321.70543053
  ---------------------------------------------------
  free energy    TOTEN  =       -37.70125189 eV

  energy without entropy =      -37.70125189  energy(sigma->0) =      -37.70125189


--------------------------------------------------------------------------------------------------------




----------------------------------------- Iteration    1(   5)  ---------------------------------------


     EDDAV:  cpu time    0.26: real time    0.27
       DOS:  cpu time    0.00: real time    0.00
    CHARGE:  cpu time    0.06: real time    0.06
    MIXING:  cpu time    0.00: real time    0.00
    --------------------------------------------
      LOOP:  cpu time    0.33: real time    0.33

 eigenvalue-minimisations  :   860
 total energy-change (2. order) :-0.2466870E-01  (-0.2466228E-01)
 number of electron      56.0000002 magnetization 
 augmentation part       13.1779364 magnetization 

 Broyden mixing:
  rms(total) = 0.83628E+00    rms(broyden)= 0.83621E+00
  rms(prec ) = 0.14144E+01
  weight for this iteration     100.00

 Free energy of the ion-electron system (eV)
  ---------------------------------------------------
  alpha Z        PSCENC =       149.68198211
  Ewald energy   TEWEN  =     -3109.52470188
  -Hartree energ DENC   =     -1173.24357592
  -exchange      EXHF   =         0.00000000
  -V(xc)+E(xc)   XCENC  =       159.08860661
  PAW double counting   =      3462.71711756    -3919.80126840
  entropy T*S    EENTRO =         0.00000000
  eigenvalues    EBANDS =      -928.34951119
  atomic energy  EATOM  =      5321.70543053
  ---------------------------------------------------
  free energy    TOTEN  =       -37.72592059 eV

  energy without entropy =      -37.72592059  energy(sigma->0) =      -37.72592059


--------------------------------------------------------------------------------------------------------




----------------------------------------- Iteration    1(   6)  ---------------------------------------


    POTLOK:  cpu time    0.02: real time    0.02
    SETDIJ:  cpu time    0.03: real time    0.03
     EDDAV:  cpu time    0.24: real time    0.24
       DOS:  cpu time    0.00: real time    0.00
    CHARGE:  cpu time    0.06: real time    0.06
    MIXING:  cpu time    0.00: real time    0.00
    --------------------------------------------
      LOOP:  cpu time    0.35: real time    0.35

 eigenvalue-minimisations  :   768
 total energy-change (2. order) : 0.1339902E+01  (-0.2685397E+00)
 number of electron      56.0000002 magnetization 
 augmentation part       13.3391244 magnetization 

 Broyden mixing:
  rms(total) = 0.61742E+00    rms(broyden)= 0.61742E+00
  rms(prec ) = 0.76616E+00
  weight for this iteration     100.00

 eigenvalues of (default mixing * dielectric matrix)
  average eigenvalue GAMMA=   1.9475
  1.9475

 Free energy of the ion-electron system (eV)
  ---------------------------------------------------
  alpha Z        PSCENC =       149.68198211
  Ewald energy   TEWEN  =     -3109.52470188
  -Hartree energ DENC   =     -1171.73358946
  -exchange      EXHF   =         0.00000000
  -V(xc)+E(xc)   XCENC  =       160.19356592
  PAW double counting   =      3723.29123282    -4176.66200974
  entropy T*S    EENTRO =         0.00000000
  eigenvalues    EBANDS =      -933.33792916
  atomic energy  EATOM  =      5321.70543053
  ---------------------------------------------------
  free energy    TOTEN  =       -36.38601887 eV

  energy without entropy =      -36.38601887  energy(sigma->0) =      -36.38601887


--------------------------------------------------------------------------------------------------------




----------------------------------------- Iteration    1(   7)  ---------------------------------------


    POTLOK:  cpu time    0.02: real time    0.02
    SETDIJ:  cpu time    0.03: real time    0.03
     EDDAV:  cpu time    0.29: real time    0.29
       DOS:  cpu time    0.00: real time    0.00
    CHARGE:  cpu time    0.06: real time    0.06
    MIXING:  cpu time    0.00: real time    0.00
    --------------------------------------------
      LOOP:  cpu time    0.39: real time    0.39

 eigenvalue-minimisations  :   932
 total energy-change (2. order) : 0.1596269E+00  (-0.7450887E-01)
 number of electron      56.0000002 magnetization 
 augmentation part       13.4249865 magnetization 

 Broyden mixing:
  rms(total) = 0.35584E+00    rms(broyden)= 0.35584E+00
  rms(prec ) = 0.38377E+00
  weight for this iteration     100.00

 eigenvalues of (default mixing * dielectric matrix)
  average eigenvalue GAMMA=   2.2509
  1.4323  3.0695

 Free energy of the ion-electron system (eV)
  ---------------------------------------------------
  alpha Z        PSCENC =       149.68198211
  Ewald energy   TEWEN  =     -3109.52470188
  -Hartree energ DENC   =     -1168.36274973
  -exchange      EXHF   =         0.00000000
  -V(xc)+E(xc)   XCENC  =       160.92801694
  PAW double counting   =      4190.61866971    -4642.59807490
  entropy T*S    EENTRO =         0.00000000
  eigenvalues    EBANDS =      -938.67496476
  atomic energy  EATOM  =      5321.70543053
  ---------------------------------------------------
  free energy    TOTEN  =       -36.22639199 eV

  energy without entropy =      -36.22639199  energy(sigma->0) =      -36.22639199


--------------------------------------------------------------------------------------------------------




----------------------------------------- Iteration    1(   8)  ---------------------------------------


    POTLOK:  cpu time    0.01: real time    0.02
    SETDIJ:  cpu time    0.03: real time    0.03
     EDDAV:  cpu time    0.25: real time    0.25
       DOS:  cpu time    0.00: real time    0.00
    CHARGE:  cpu time    0.06: real time    0.06
    MIXING:  cpu time    0.00: real time    0.00
    --------------------------------------------
      LOOP:  cpu time    0.35: real time    0.36

 eigenvalue-minimisations  :   780
 total energy-change (2. order) : 0.7249544E-02  (-0.4818453E-02)
 number of electron      56.0000002 magnetization 
 augmentation part       13.4076931 magnetization 

 Broyden mixing:
  rms(total) = 0.10639E+00    rms(broyden)= 0.10639E+00
  rms(prec ) = 0.10993E+00
  weight for this iteration     100.00

 eigenvalues of (default mixing * dielectric matrix)
  average eigenvalue GAMMA=   1.5862
  2.4897  0.8769  1.3919

 Free energy of the ion-electron system (eV)
  ---------------------------------------------------
  alpha Z        PSCENC =       149.68198211
  Ewald energy   TEWEN  =     -3109.52470188
  -Hartree energ DENC   =     -1163.58031287
  -exchange      EXHF   =         0.00000000
  -V(xc)+E(xc)   XCENC  =       161.13701958
  PAW double counting   =      4782.11315560    -5234.98112248
  entropy T*S    EENTRO =         0.00000000
  eigenvalues    EBANDS =      -942.77059303
  atomic energy  EATOM  =      5321.70543053
  ---------------------------------------------------
  free energy    TOTEN  =       -36.21914245 eV

  energy without entropy =      -36.21914245  energy(sigma->0) =      -36.21914245


--------------------------------------------------------------------------------------------------------




----------------------------------------- Iteration    1(   9)  ---------------------------------------


    POTLOK:  cpu time    0.01: real time    0.02
    SETDIJ:  cpu time    0.03: real time    0.03
     EDDAV:  cpu time    0.27: real time    0.27
       DOS:  cpu time    0.00: real time    0.00
    CHARGE:  cpu time    0.06: real time    0.06
    MIXING:  cpu time    0.00: real time    0.00
    --------------------------------------------
      LOOP:  cpu time    0.38: real time    0.38

 eigenvalue-minimisations  :   876
 total energy-change (2. order) : 0.7950387E-03  (-0.2396538E-03)
 number of electron      56.0000002 magnetization 
 augmentation part       13.4113475 magnetization 

 Broyden mixing:
  rms(total) = 0.30009E-01    rms(broyden)= 0.30009E-01
  rms(prec ) = 0.31071E-01
  weight for this iteration     100.00

 eigenvalues of (default mixing * dielectric matrix)
  average eigenvalue GAMMA=   1.8085
  2.6450  2.1137  1.1360  1.3394

 Free energy of the ion-electron system (eV)
  ---------------------------------------------------
  alpha Z        PSCENC =       149.68198211
  Ewald energy   TEWEN  =     -3109.52470188
  -Hartree energ DENC   =     -1164.17535382
  -exchange      EXHF   =         0.00000000
  -V(xc)+E(xc)   XCENC  =       161.11362719
  PAW double counting   =      4671.07198166    -5123.77922167
  entropy T*S    EENTRO =         0.00000000
  eigenvalues    EBANDS =      -942.31209152
  atomic energy  EATOM  =      5321.70543053
  ---------------------------------------------------
  free energy    TOTEN  =       -36.21834741 eV

  energy without entropy =      -36.21834741  energy(sigma->0) =      -36.21834741


--------------------------------------------------------------------------------------------------------




----------------------------------------- Iteration    1(  10)  ---------------------------------------


    POTLOK:  cpu time    0.01: real time    0.02
    SETDIJ:  cpu time    0.03: real time    0.03
     EDDAV:  cpu time    0.28: real time    0.28
       DOS:  cpu time    0.00: real time    0.00
    CHARGE:  cpu time    0.06: real time    0.06
    MIXING:  cpu time    0.00: real time    0.00
    --------------------------------------------
      LOOP:  cpu time    0.39: real time    0.39

 eigenvalue-minimisations  :   896
 total energy-change (2. order) :-0.3011521E-04  (-0.5567680E-04)
 number of electron      56.0000002 magnetization 
 augmentation part       13.4137138 magnetization 

 Broyden mixing:
  rms(total) = 0.19775E-02    rms(broyden)= 0.19775E-02
  rms(prec ) = 0.32732E-02
  weight for this iteration     100.00

 eigenvalues of (default mixing * dielectric matrix)
  average eigenvalue GAMMA=   1.6910
  2.7179  2.4954  1.3204  1.0475  0.8740

 Free energy of the ion-electron system (eV)
  ---------------------------------------------------
  alpha Z        PSCENC =       149.68198211
  Ewald energy   TEWEN  =     -3109.52470188
  -Hartree energ DENC   =     -1163.92562835
  -exchange      EXHF   =         0.00000000
  -V(xc)+E(xc)   XCENC  =       161.11416828
  PAW double counting   =      4628.91978663    -5081.64785371
  entropy T*S    EENTRO =         0.00000000
  eigenvalues    EBANDS =      -942.54156112
  atomic energy  EATOM  =      5321.70543053
  ---------------------------------------------------
  free energy    TOTEN  =       -36.21837753 eV

  energy without entropy =      -36.21837753  energy(sigma->0) =      -36.21837753


--------------------------------------------------------------------------------------------------------




----------------------------------------- Iteration    1(  11)  ---------------------------------------


    POTLOK:  cpu time    0.01: real time    0.02
    SETDIJ:  cpu time    0.03: real time    0.03
     EDDAV:  cpu time    0.26: real time    0.26
       DOS:  cpu time    0.00: real time    0.00
    CHARGE:  cpu time    0.06: real time    0.06
    MIXING:  cpu time    0.00: real time    0.00
    --------------------------------------------
      LOOP:  cpu time    0.36: real time    0.37

 eigenvalue-minimisations  :   820
 total energy-change (2. order) : 0.3551737E-05  (-0.2761903E-05)
 number of electron      56.0000002 magnetization 
 augmentation part       13.4133151 magnetization 

 Broyden mixing:
  rms(total) = 0.23354E-02    rms(broyden)= 0.23354E-02
  rms(prec ) = 0.24282E-02
  weight for this iteration     100.00

 eigenvalues of (default mixing * dielectric matrix)
  average eigenvalue GAMMA=   1.6474
  2.7368  2.4558  1.4016  0.9883  1.1511  1.1511

 Free energy of the ion-electron system (eV)
  ---------------------------------------------------
  alpha Z        PSCENC =       149.68198211
  Ewald energy   TEWEN  =     -3109.52470188
  -Hartree energ DENC   =     -1163.87397423
  -exchange      EXHF   =         0.00000000
  -V(xc)+E(xc)   XCENC  =       161.10995625
  PAW double counting   =      4622.43706519    -5075.19228267
  entropy T*S    EENTRO =         0.00000000
  eigenvalues    EBANDS =      -942.56184926
  atomic energy  EATOM  =      5321.70543053
  ---------------------------------------------------
  free energy    TOTEN  =       -36.21837398 eV

  energy without entropy =      -36.21837398  energy(sigma->0) =      -36.21837398


--------------------------------------------------------------------------------------------------------




----------------------------------------- Iteration    1(  12)  ---------------------------------------


    POTLOK:  cpu time    0.01: real time    0.02
    SETDIJ:  cpu time    0.03: real time    0.03
     EDDAV:  cpu time    0.28: real time    0.28
       DOS:  cpu time    0.00: real time    0.00
    CHARGE:  cpu time    0.06: real time    0.06
    MIXING:  cpu time    0.00: real time    0.00
    --------------------------------------------
      LOOP:  cpu time    0.39: real time    0.39

 eigenvalue-minimisations  :   880
 total energy-change (2. order) : 0.7763065E-06  (-0.1981796E-06)
 number of electron      56.0000002 magnetization 
 augmentation part       13.4131626 magnetization 

 Broyden mixing:
  rms(total) = 0.30287E-03    rms(broyden)= 0.30286E-03
  rms(prec ) = 0.35640E-03
  weight for this iteration     100.00

 eigenvalues of (default mixing * dielectric matrix)
  average eigenvalue GAMMA=   1.7147
  2.7988  2.5793  2.3688  1.2148  1.2148  0.9712  0.8553

 Free energy of the ion-electron system (eV)
  ---------------------------------------------------
  alpha Z        PSCENC =       149.68198211
  Ewald energy   TEWEN  =     -3109.52470188
  -Hartree energ DENC   =     -1163.87838170
  -exchange      EXHF   =         0.00000000
  -V(xc)+E(xc)   XCENC  =       161.11033534
  PAW double counting   =      4624.95491513    -5077.71397062
  entropy T*S    EENTRO =         0.00000000
  eigenvalues    EBANDS =      -942.55398209
  atomic energy  EATOM  =      5321.70543053
  ---------------------------------------------------
  free energy    TOTEN  =       -36.21837320 eV

  energy without entropy =      -36.21837320  energy(sigma->0) =      -36.21837320


--------------------------------------------------------------------------------------------------------




----------------------------------------- Iteration    1(  13)  ---------------------------------------


    POTLOK:  cpu time    0.01: real time    0.02
    SETDIJ:  cpu time    0.03: real time    0.03
     EDDAV:  cpu time    0.28: real time    0.28
       DOS:  cpu time    0.00: real time    0.00
    CHARGE:  cpu time    0.06: real time    0.06
    MIXING:  cpu time    0.00: real time    0.00
    --------------------------------------------
      LOOP:  cpu time    0.38: real time    0.39

 eigenvalue-minimisations  :   880
 total energy-change (2. order) : 0.3117202E-07  (-0.1331957E-07)
 number of electron      56.0000002 magnetization 
 augmentation part       13.4131230 magnetization 

 Broyden mixing:
  rms(total) = 0.13168E-03    rms(broyden)= 0.13168E-03
  rms(prec ) = 0.13378E-03
  weight for this iteration     100.00

 eigenvalues of (default mixing * dielectric matrix)
  average eigenvalue GAMMA=   1.6676
  2.9704  2.6400  2.4339  1.3211  1.0660  1.0660  1.0076  0.8358

 Free energy of the ion-electron system (eV)
  ---------------------------------------------------
  alpha Z        PSCENC =       149.68198211
  Ewald energy   TEWEN  =     -3109.52470188
  -Hartree energ DENC   =     -1163.88216014
  -exchange      EXHF   =         0.00000000
  -V(xc)+E(xc)   XCENC  =       161.11027460
  PAW double counting   =      4625.32709183    -5078.08775947
  entropy T*S    EENTRO =         0.00000000
  eigenvalues    EBANDS =      -942.54853074
  atomic energy  EATOM  =      5321.70543053
  ---------------------------------------------------
  free energy    TOTEN  =       -36.21837317 eV

  energy without entropy =      -36.21837317  energy(sigma->0) =      -36.21837317


--------------------------------------------------------------------------------------------------------




----------------------------------------- Iteration    1(  14)  ---------------------------------------


    POTLOK:  cpu time    0.02: real time    0.02
    SETDIJ:  cpu time    0.03: real time    0.03
     EDDAV:  cpu time    0.26: real time    0.26
       DOS:  cpu time    0.00: real time    0.00
    CHARGE:  cpu time    0.06: real time    0.06
    MIXING:  cpu time    0.00: real time    0.00
    --------------------------------------------
      LOOP:  cpu time    0.37: real time    0.37

 eigenvalue-minimisations  :   808
 total energy-change (2. order) : 0.3128116E-07  (-0.9836341E-09)
 number of electron      56.0000002 magnetization 
 augmentation part       13.4131138 magnetization 

 Broyden mixing:
  rms(total) = 0.15878E-03    rms(broyden)= 0.15878E-03
  rms(prec ) = 0.16198E-03
  weight for this iteration     100.00

 eigenvalues of (default mixing * dielectric matrix)
  average eigenvalue GAMMA=   1.7493
  2.7911  2.7911  2.4519  2.3424  1.2371  1.2371  1.0151  1.0151  0.8625

 Free energy of the ion-electron system (eV)
  ---------------------------------------------------
  alpha Z        PSCENC =       149.68198211
  Ewald energy   TEWEN  =     -3109.52470188
  -Hartree energ DENC   =     -1163.88240240
  -exchange      EXHF   =         0.00000000
  -V(xc)+E(xc)   XCENC  =       161.11025048
  PAW double counting   =      4625.33764174    -5078.09839095
  entropy T*S    EENTRO =         0.00000000
  eigenvalues    EBANDS =      -942.54818274
  atomic energy  EATOM  =      5321.70543053
  ---------------------------------------------------
  free energy    TOTEN  =       -36.21837314 eV

  energy without entropy =      -36.21837314  energy(sigma->0) =      -36.21837314


--------------------------------------------------------------------------------------------------------




----------------------------------------- Iteration    1(  15)  ---------------------------------------


    POTLOK:  cpu time    0.01: real time    0.02
    SETDIJ:  cpu time    0.03: real time    0.03
     EDDAV:  cpu time    0.23: real time    0.23
       DOS:  cpu time    0.00: real time    0.00
    CHARGE:  cpu time    0.06: real time    0.06
    MIXING:  cpu time    0.00: real time    0.00
    --------------------------------------------
      LOOP:  cpu time    0.33: real time    0.34

 eigenvalue-minimisations  :   688
 total energy-change (2. order) :-0.2780780E-07  (-0.5797156E-09)
 number of electron      56.0000002 magnetization 
 augmentation part       13.4131224 magnetization 

 Broyden mixing:
  rms(total) = 0.28250E-04    rms(broyden)= 0.28250E-04
  rms(prec ) = 0.28537E-04
  weight for this iteration     100.00

 eigenvalues of (default mixing * dielectric matrix)
  average eigenvalue GAMMA=   1.6634
  2.8924  2.7202  2.5583  2.2317  1.2263  1.2263  0.9966  0.9442  0.9442  0.8938

 Free energy of the ion-electron system (eV)
  ---------------------------------------------------
  alpha Z        PSCENC =       149.68198211
  Ewald energy   TEWEN  =     -3109.52470188
  -Hartree energ DENC   =     -1163.88319184
  -exchange      EXHF   =         0.00000000
  -V(xc)+E(xc)   XCENC  =       161.11024732
  PAW double counting   =      4625.10064312    -5077.86102505
  entropy T*S    EENTRO =         0.00000000
  eigenvalues    EBANDS =      -942.54775747
  atomic energy  EATOM  =      5321.70543053
  ---------------------------------------------------
  free energy    TOTEN  =       -36.21837316 eV

  energy without entropy =      -36.21837316  energy(sigma->0) =      -36.21837316


--------------------------------------------------------------------------------------------------------




----------------------------------------- Iteration    1(  16)  ---------------------------------------


    POTLOK:  cpu time    0.01: real time    0.02
    SETDIJ:  cpu time    0.03: real time    0.03
     EDDAV:  cpu time    0.16: real time    0.17
       DOS:  cpu time    0.00: real time    0.00
    --------------------------------------------
      LOOP:  cpu time    0.21: real time    0.21

 eigenvalue-minimisations  :   416
 total energy-change (2. order) : 0.5820766E-08  (-0.9899748E-11)
 number of electron      56.0000002 magnetization 
 augmentation part       13.4131224 magnetization 

 Free energy of the ion-electron system (eV)
  ---------------------------------------------------
  alpha Z        PSCENC =       149.68198211
  Ewald energy   TEWEN  =     -3109.52470188
  -Hartree energ DENC   =     -1163.88317946
  -exchange      EXHF   =         0.00000000
  -V(xc)+E(xc)   XCENC  =       161.11025410
  PAW double counting   =      4625.13046904    -5077.89087035
  entropy T*S    EENTRO =         0.00000000
  eigenvalues    EBANDS =      -942.54775723
  atomic energy  EATOM  =      5321.70543053
  ---------------------------------------------------
  free energy    TOTEN  =       -36.21837316 eV

  energy without entropy =      -36.21837316  energy(sigma->0) =      -36.21837316


--------------------------------------------------------------------------------------------------------




 average (electrostatic) potential at core
  the test charge radii are     0.8294  0.9698
  (the norm of the test charge is              1.0000)
       1 -42.8064       2 -42.8064       3 -42.8064       4 -42.8064       5 -86.4623
       6 -86.4623       7 -86.4623       8 -86.4623
 
 
 
 E-fermi :   3.5040     XC(G=0):  -9.9848     alpha+bet :-10.3941


 k-point     1 :       0.0000    0.0000    0.0000
  band No.  band energies     occupation 
      1     -37.8568      2.00000
      2     -37.8568      2.00000
      3     -37.8568      2.00000
      4     -37.8534      2.00000
      5     -37.8534      2.00000
      6     -37.8534      2.00000
      7     -37.8534      2.00000
      8     -37.8534      2.00000
      9     -37.8534      2.00000
     10     -37.8506      2.00000
     11     -37.8506      2.00000
     12     -37.8506      2.00000
     13      -9.2322      2.00000
     14      -7.5505      2.00000
     15      -7.5505      2.00000
     16      -7.5505      2.00000
     17      -0.8012      2.00000
     18      -0.8012      2.00000
     19      -0.8012      2.00000
     20       1.7252      2.00000
     21       1.7252      2.00000
     22       1.7252      2.00000
     23       1.7252      2.00000
     24       1.7252      2.00000
     25       1.7252      2.00000
     26       3.4145      2.00000
     27       3.4145      2.00000
     28       3.4145      2.00000
     29       6.1096      0.00000
     30       6.1096      0.00000
     31       6.1096      0.00000
     32       6.9560      0.00000
     33       7.6756      0.00000
     34       7.6756      0.00000
     35       7.6756      0.00000
     36      11.2703      0.00000

 k-point     2 :       0.2500    0.0000    0.0000
  band No.  band energies     occupation 
      1     -37.8563      2.00000
      2     -37.8563      2.00000
      3     -37.8561      2.00000
      4     -37.8538      2.00000
      5     -37.8538      2.00000
      6     -37.8534      2.00000
      7     -37.8534      2.00000
      8     -37.8529      2.00000
      9     -37.8529      2.00000
     10     -37.8516      2.00000
     11     -37.8510      2.00000
     12     -37.8510      2.00000
     13      -9.0300      2.00000
     14      -7.8567      2.00000
     15      -7.5267      2.00000
     16      -7.5267      2.00000
     17      -0.5496      2.00000
     18      -0.5496      2.00000
     19      -0.3417      2.00000
     20       1.1491      2.00000
     21       1.1491      2.00000
     22       1.3463      2.00000
     23       1.3463      2.00000
     24       1.9168      2.00000
     25       1.9168      2.00000
     26       2.3866      2.00000
     27       3.0875      2.00000
     28       3.0875      2.00000
     29       6.7482      0.00000
     30       7.1349      0.00000
     31       7.1349      0.00000
     32       7.9907      0.00000
     33       8.1174      0.00000
     34       8.7807      0.00000
     35       8.7807      0.00000
     36      10.2931      0.00000

 k-point     3 :       0.5000    0.0000    0.0000
  band No.  band energies     occupation 
      1     -37.8550      2.00000
      2     -37.8550      2.00000
      3     -37.8550      2.00000
      4     -37.8550      2.00000
      5     -37.8540      2.00000
      6     -37.8540      2.00000
      7     -37.8533      2.00000
      8     -37.8533      2.00000
      9     -37.8521      2.00000
     10     -37.8521      2.00000
     11     -37.8521      2.00000
     12     -37.8521      2.00000
     13      -8.4923      2.00000
     14      -8.4923      2.00000
     15      -7.5025      2.00000
     16      -7.5025      2.00000
     17       0.1656      2.00000
     18       0.1656      2.00000
     19       0.1656      2.00000
     20       0.1656      2.00000
     21       0.8376      2.00000
     22       0.8376      2.00000
     23       1.0389      2.00000
     24       1.0389      2.00000
     25       2.4395      2.00000
     26       2.4395      2.00000
     27       2.4395      2.00000
     28       2.4395      2.00000
     29       8.3245      0.00000
     30       8.3245      0.00000
     31       8.6020      0.00000
     32       8.6020      0.00000
     33       8.9112      0.00000
     34       8.9112      0.00000
     35      11.2459      0.00000
     36      11.2463      0.00000

 k-point     4 :       0.2500    0.2500    0.0000
  band No.  band energies     occupation 
      1     -37.8560      2.00000
      2     -37.8560      2.00000
      3     -37.8558      2.00000
      4     -37.8547      2.00000
      5     -37.8535      2.00000
      6     -37.8535      2.00000
      7     -37.8529      2.00000
      8     -37.8528      2.00000
      9     -37.8528      2.00000
     10     -37.8528      2.00000
     11     -37.8514      2.00000
     12     -37.8508      2.00000
     13      -8.8408      2.00000
     14      -7.7851      2.00000
     15      -7.7851      2.00000
     16      -7.5484      2.00000
     17      -0.3651      2.00000
     18      -0.3651      2.00000
     19      -0.3015      2.00000
     20       0.2087      2.00000
     21       1.3617      2.00000
     22       1.3617      2.00000
     23       1.4464      2.00000
     24       1.8151      2.00000
     25       1.8151      2.00000
     26       2.0467      2.00000
     27       2.6966      2.00000
     28       3.3073      2.00000
     29       7.2284      0.00000
     30       7.6777      0.00000
     31       7.6777      0.00000
     32       8.6356      0.00000
     33       9.0479      0.00000
     34       9.0479      0.00000
     35      10.0075      0.00000
     36      10.5086      0.00000

 k-point     5 :       0.5000    0.2500    0.0000
  band No.  band energies     occupation 
      1     -37.8556      2.00000
      2     -37.8556      2.00000
      3     -37.8548      2.00000
      4     -37.8548      2.00000
      5     -37.8547      2.00000
      6     -37.8547      2.00000
      7     -37.8526      2.00000
      8     -37.8526      2.00000
      9     -37.8525      2.00000
     10     -37.8525      2.00000
     11     -37.8516      2.00000
     12     -37.8516      2.00000
     13      -8.3467      2.00000
     14      -8.3467      2.00000
     15      -7.6414      2.00000
     16      -7.6414      2.00000
     17      -0.3143      2.00000
     18      -0.3143      2.00000
     19       0.3177      2.00000
     20       0.3177      2.00000
     21       0.4018      2.00000
     22       0.4018      2.00000
     23       1.9486      2.00000
     24       1.9486      2.00000
     25       1.9546      2.00000
     26       1.9546      2.00000
     27       2.7344      2.00000
     28       2.7344      2.00000
     29       8.5786      0.00000
     30       8.5786      0.00000
     31       9.1126      0.00000
     32       9.1126      0.00000
     33       9.7827      0.00000
     34       9.7827      0.00000
     35      10.3748      0.00000
     36      10.4027      0.00000

 k-point     6 :       0.5000    0.5000    0.0000
  band No.  band energies     occupation 
      1     -37.8557      2.00000
      2     -37.8557      2.00000
      3     -37.8557      2.00000
      4     -37.8557      2.00000
      5     -37.8536      2.00000
      6     -37.8536      2.00000
      7     -37.8536      2.00000
      8     -37.8536      2.00000
      9     -37.8517      2.00000
     10     -37.8517      2.00000
     11     -37.8517      2.00000
     12     -37.8517      2.00000
     13      -7.9916      2.00000
     14      -7.9916      2.00000
     15      -7.9916      2.00000
     16      -7.9916      2.00000
     17      -0.3088      2.00000
     18      -0.3088      2.00000
     19      -0.3088      2.00000
     20      -0.3088      2.00000
     21       1.0654      2.00000
     22       1.0654      2.00000
     23       1.0654      2.00000
     24       1.0654      2.00000
     25       2.7813      2.00000
     26       2.7813      2.00000
     27       2.7813      2.00000
     28       2.7813      2.00000
     29       8.9836      0.00000
     30       8.9836      0.00000
     31       8.9836      0.00000
     32       8.9836      0.00000
     33      10.8779      0.00000
     34      10.8782      0.00000
     35      10.8789      0.00000
     36      10.8814      0.00000

 k-point     7 :       0.2500    0.2500    0.2500
  band No.  band energies     occupation 
      1     -37.8563      2.00000
      2     -37.8563      2.00000
      3     -37.8563      2.00000
      4     -37.8542      2.00000
      5     -37.8534      2.00000
      6     -37.8534      2.00000
      7     -37.8534      2.00000
      8     -37.8525      2.00000
      9     -37.8525      2.00000
     10     -37.8525      2.00000
     11     -37.8511      2.00000
     12     -37.8511      2.00000
     13      -8.6676      2.00000
     14      -7.7530      2.00000
     15      -7.7530      2.00000
     16      -7.7530      2.00000
     17      -0.6512      2.00000
     18      -0.6512      2.00000
     19      -0.6512      2.00000
     20       0.5824      2.00000
     21       1.1909      2.00000
     22       1.1909      2.00000
     23       1.1909      2.00000
     24       2.2047      2.00000
     25       2.2047      2.00000
     26       2.2047      2.00000
     27       3.0910      2.00000
     28       3.0910      2.00000
     29       7.7238      0.00000
     30       7.7238      0.00000
     31       7.7238      0.00000
     32       8.2188      0.00000
     33      10.0494      0.00000
     34      10.0494      0.00000
     35      10.0494      0.00000
     36      11.1475      0.00000

 k-point     8 :       0.5000    0.2500    0.2500
  band No.  band energies     occupation 
      1     -37.8566      2.00000
      2     -37.8566      2.00000
      3     -37.8558      2.00000
      4     -37.8558      2.00000
      5     -37.8534      2.00000
      6     -37.8534      2.00000
      7     -37.8523      2.00000
      8     -37.8523      2.00000
      9     -37.8518      2.00000
     10     -37.8518      2.00000
     11     -37.8518      2.00000
     12     -37.8518      2.00000
     13      -8.2267      2.00000
     14      -8.2267      2.00000
     15      -7.7202      2.00000
     16      -7.7202      2.00000
     17      -0.9155      2.00000
     18      -0.9155      2.00000
     19      -0.3637      2.00000
     20      -0.3637      2.00000
     21       1.2603      2.00000
     22       1.2603      2.00000
     23       2.2575      2.00000
     24       2.2575      2.00000
     25       2.4932      2.00000
     26       2.4932      2.00000
     27       2.6191      2.00000
     28       2.6191      2.00000
     29       8.5611      0.00000
     30       8.5611      0.00000
     31       8.9044      0.00000
     32       8.9044      0.00000
     33       9.3886      0.00000
     34       9.3886      0.00000
     35       9.9412      0.00000
     36       9.9412      0.00000

 k-point     9 :       0.5000    0.5000    0.2500
  band No.  band energies     occupation 
      1     -37.8568      2.00000
      2     -37.8568      2.00000
      3     -37.8568      2.00000
      4     -37.8568      2.00000
      5     -37.8524      2.00000
      6     -37.8524      2.00000
      7     -37.8524      2.00000
      8     -37.8524      2.00000
      9     -37.8516      2.00000
     10     -37.8516      2.00000
     11     -37.8516      2.00000
     12     -37.8516      2.00000
     13      -7.9533      2.00000
     14      -7.9533      2.00000
     15      -7.9533      2.00000
     16      -7.9533      2.00000
     17      -1.0178      2.00000
     18      -1.0178      2.00000
     19      -1.0178      2.00000
     20      -1.0178      2.00000
     21       2.0476      2.00000
     22       2.0476      2.00000
     23       2.0476      2.00000
     24       2.0476      2.00000
     25       2.8012      2.00000
     26       2.8012      2.00000
     27       2.8012      2.00000
     28       2.8012      2.00000
     29       8.6134      0.00000
     30       8.6134      0.00000
     31       8.6134      0.00000
     32       8.6134      0.00000
     33       9.8106      0.00000
     34       9.8106      0.00000
     35       9.8106      0.00000
     36       9.8106      0.00000

 k-point    10 :       0.5000    0.5000    0.5000
  band No.  band energies     occupation 
      1     -37.8577      2.00000
      2     -37.8577      2.00000
      3     -37.8577      2.00000
      4     -37.8577      2.00000
      5     -37.8517      2.00000
      6     -37.8517      2.00000
      7     -37.8517      2.00000
      8     -37.8517      2.00000
      9     -37.8517      2.00000
     10     -37.8517      2.00000
     11     -37.8517      2.00000
     12     -37.8517      2.00000
     13      -7.9137      2.00000
     14      -7.9137      2.00000
     15      -7.9137      2.00000
     16      -7.9137      2.00000
     17      -1.4443      2.00000
     18      -1.4443      2.00000
     19      -1.4443      2.00000
     20      -1.4443      2.00000
     21       2.8215      2.00000
     22       2.8215      2.00000
     23       2.8215      2.00000
     24       2.8215      2.00000
     25       2.8215      2.00000
     26       2.8215      2.00000
     27       2.8215      2.00000
     28       2.8215      2.00000
     29       7.8058      0.00000
     30       7.8058      0.00000
     31       7.8058      0.00000
     32       7.8058      0.00000
     33      10.2357      0.00000
     34      10.2357      0.00000
     35      10.2357      0.00000
     36      10.2357      0.00000


--------------------------------------------------------------------------------------------------------


 soft charge-density along one line, spin component           1
         0         1         2         3         4         5         6         7         8         9
 total charge-density along one line
 
 pseudopotential strength for first ion, spin component:           1
-49.311   0.000   0.000   6.042   0.000   0.000   0.000   0.000
  0.000 -49.311   0.000   0.000   6.042   0.000   0.000   0.000
  0.000   0.000 -49.311   0.000   0.000   6.042   0.000   0.000
  6.042   0.000   0.000   4.611   0.000   0.000   0.000   0.000
  0.000   6.042   0.000   0.000   4.611   0.000   0.000   0.000
  0.000   0.000   6.042   0.000   0.000   4.611   0.000   0.000
  0.000   0.000   0.000   0.000   0.000   0.000   2.966 -10.881
  0.000   0.000   0.000   0.000   0.000   0.000 -10.881  45.298
  0.000   0.000   0.000   0.000   0.000   0.000   0.000   0.000
  0.000   0.000   0.000   0.000   0.000   0.000   0.000   0.000
  0.000   0.000   0.000   0.000   0.000   0.000   0.000   0.000
  0.000   0.000   0.000   0.000   0.000   0.000   0.000   0.000
  0.000   0.000   0.000   0.000   0.000   0.000   0.000   0.000
 total augmentation occupancy for first ion, spin component:           1
  2.002   0.000   0.000   0.000   0.000   0.000   0.000   0.000   0.000   0.000   0.000   0.000   0.000
  0.000   2.002   0.000   0.000   0.000   0.000   0.000   0.000   0.000   0.000   0.000   0.000   0.000
  0.000   0.000   2.002   0.000   0.000   0.000   0.000   0.000   0.000   0.000   0.000   0.000   0.000
  0.000   0.000   0.000   0.057   0.000   0.000   0.000   0.000   0.000   0.000   0.000   0.000   0.000
  0.000   0.000   0.000   0.000   0.057   0.000   0.000   0.000   0.000   0.000   0.000   0.000   0.000
  0.000   0.000   0.000   0.000   0.000   0.057   0.000   0.000   0.000   0.000   0.000   0.000   0.000
  0.000   0.000   0.000   0.000   0.000   0.000   0.787   0.011   0.000   0.000   0.000   0.000   0.000
  0.000   0.000   0.000   0.000   0.000   0.000   0.011   0.000   0.000   0.000   0.000   0.000   0.000
  0.000   0.000   0.000   0.000   0.000   0.000   0.000   0.000   0.006   0.000   0.000   0.000   0.000
  0.000   0.000   0.000   0.000   0.000   0.000   0.000   0.000   0.000   0.006   0.000   0.000   0.000
  0.000   0.000   0.000   0.000   0.000   0.000   0.000   0.000   0.000   0.000   0.027   0.000   0.000
  0.000   0.000   0.000   0.000   0.000   0.000   0.000   0.000   0.000   0.000   0.000   0.006   0.000
  0.000   0.000   0.000   0.000   0.000   0.000   0.000   0.000   0.000   0.000   0.000   0.000   0.027


------------------------ aborting loop because EDIFF is reached ----------------------------------------


    CHARGE:  cpu time    0.06: real time    0.06
    FORLOC:  cpu time    0.00: real time    0.00
    FORNL :  cpu time    0.21: real time    0.21
    STRESS:  cpu time    0.62: real time    0.63
    FORCOR:  cpu time    0.02: real time    0.02
    FORHAR:  cpu time    0.01: real time    0.01
    MIXING:  cpu time    0.00: real time    0.00
    OFIELD:  cpu time    0.00: real time    0.00

  FORCE on cell =-STRESS in cart. coord.  units (eV):
  Direction    XX          YY          ZZ          XY          YZ          ZX
  --------------------------------------------------------------------------------------
  Alpha Z   149.68198   149.68198   149.68198
  Ewald   -1036.50981 -1036.50981 -1036.50981     0.00000     0.00000     0.00000
  Hartree   387.96106   387.96106   387.96106     0.00000     0.00000     0.00000
  E(xc)    -264.67933  -264.67933  -264.67933     0.00000     0.00000     0.00000
  Local     -13.20285   -13.20285   -13.20285     0.00000     0.00000     0.00000
  n-local    36.09845    37.36700    35.72699    -1.30842    -1.19429    -0.49581
  augment    32.66716    32.66716    32.66713     0.00000    -0.00001    -0.00001
  Kinetic   698.35466   709.36954   711.35860    -2.81292    -2.76287    -1.10450
  Fock        0.00000     0.00000     0.00000     0.00000     0.00000     0.00000
  -------------------------------------------------------------------------------------
  Total      -1.32338    -1.32338    -1.32338     0.00000     0.00000     0.00000
  in kB     -14.94724   -14.94724   -14.94724     0.00000     0.00000     0.00000
  external pressure =      -14.95 kB  Pullay stress =        0.00 kB


 VOLUME and BASIS-vectors are now :
 -----------------------------------------------------------------------------
  energy-cutoff  :      525.11
  volume of cell :      141.85
      direct lattice vectors                 reciprocal lattice vectors
     5.215284908  0.000000000  0.000000000     0.191744079  0.000000000  0.000000000
     0.000000000  5.215284908  0.000000000     0.000000000  0.191744079  0.000000000
     0.000000000  0.000000000  5.215284908     0.000000000  0.000000000  0.191744079

  length of vectors
     5.215284908  5.215284908  5.215284908     0.191744079  0.191744079  0.191744079


 FORCES acting on ions
    electron-ion (+dipol)            ewald-force                    non-local-force                 convergence-correction
 -----------------------------------------------------------------------------------------------
   -.220E-13 -.179E-13 -.215E-13   0.298E-14 0.983E-14 -.824E-14   0.868E-26 0.000E+00 0.000E+00   -.536E-13 -.759E-13 -.761E-13
   -.221E-13 -.516E-13 -.631E-13   0.326E-14 0.500E-14 -.155E-15   -.323E-26 -.258E-25 0.000E+00   -.577E-13 0.619E-13 0.648E-13
   -.584E-13 -.203E-13 -.538E-12   0.889E-14 0.658E-14 -.149E-15   -.267E-25 0.258E-25 -.323E-25   0.250E-13 -.683E-13 0.727E-13
   -.584E-13 0.157E-11 -.278E-11   0.917E-14 0.175E-14 -.210E-14   -.194E-25 0.646E-26 -.485E-26   0.310E-13 0.665E-13 -.669E-13
   0.654E-13 0.585E-14 -.655E-13   -.520E-14 -.898E-14 0.859E-15   0.000E+00 0.000E+00 0.155E-24   0.224E-13 -.475E-13 -.531E-13
   0.662E-13 0.748E-12 0.660E-12   -.528E-14 -.359E-14 0.456E-14   -.646E-25 0.000E+00 -.517E-25   0.208E-13 0.362E-13 0.380E-13
   0.181E-13 0.166E-13 0.699E-13   -.747E-14 -.780E-14 0.455E-14   0.000E+00 -.207E-24 0.258E-24   -.382E-13 -.457E-13 0.378E-13
   0.182E-13 0.625E-13 0.282E-13   -.755E-14 -.242E-14 0.720E-15   0.517E-25 0.207E-24 0.155E-24   -.353E-13 0.370E-13 -.521E-13
 -----------------------------------------------------------------------------------------------
   0.713E-14 0.231E-11 -.271E-11   -.121E-14 0.356E-15 0.442E-16   -.535E-25 0.646E-26 0.480E-24   -.857E-13 -.358E-13 -.349E-13
 
 
 POSITION                                       TOTAL-FORCE (eV/Angst)
 -----------------------------------------------------------------------------------
      0.00000      0.00000      0.00000         0.000000      0.000000      0.000000
      0.00000      2.60764      2.60764         0.000000      0.000000      0.000000
      2.60764      0.00000      2.60764         0.000000      0.000000      0.000000
      2.60764      2.60764      0.00000         0.000000      0.000000      0.000000
      2.60764      0.00000      0.00000         0.000000      0.000000      0.000000
      2.60764      2.60764      2.60764         0.000000      0.000000      0.000000
      0.00000      0.00000      2.60764         0.000000      0.000000      0.000000
      0.00000      2.60764      0.00000         0.000000      0.000000      0.000000
 -----------------------------------------------------------------------------------
    total drift:                                0.000000      0.000000      0.000000


--------------------------------------------------------------------------------------------------------



  FREE ENERGIE OF THE ION-ELECTRON SYSTEM (eV)
  ---------------------------------------------------
  free  energy   TOTEN  =       -36.21837316 eV

  energy  without entropy=      -36.21837316  energy(sigma->0) =      -36.21837316
 


--------------------------------------------------------------------------------------------------------


    POTLOK:  cpu time    0.05: real time    0.05


--------------------------------------------------------------------------------------------------------




--------------------------------------------------------------------------------------------------------


  
 reached required accuracy - stopping structural energy minimisation
     LOOP+:  cpu time    6.43: real time    6.48
    4ORBIT:  cpu time    0.00: real time    0.00

 total amount of memory used by VASP on root node    39026. kBytes
========================================================================

   base      :      30000. kBytes
   nonl-proj :       1722. kBytes
   fftplans  :       4155. kBytes
   grid      :       1976. kBytes
   one-center:         16. kBytes
   wavefun   :       1157. kBytes
 
  
  
 General timing and accounting informations for this job:
 ========================================================
  
                  Total CPU time used (sec):        7.638
                            User time (sec):        6.672
                          System time (sec):        0.966
                         Elapsed time (sec):        7.938
  
                   Maximum memory used (kb):       72152.
                   Average memory used (kb):           0.
  
                          Minor page faults:       254381
                          Major page faults:            0
                 Voluntary context switches:         2005
