<?xml version="1.0" encoding="ISO-8859-1"?>
<modeling>
 <generator>
  <i name="program" type="string">vasp </i>
  <i name="version" type="string">5.3.5  </i>
  <i name="subversion" type="string">31Mar14 (build Nov 07 2014 11:36:17) complex                          parallel </i>
  <i name="platform" type="string">LinuxIFC </i>
  <i name="date" type="string">2015 10 15 </i>
  <i name="time" type="string">01:05:52 </i>
 </generator>
 <incar>
  <i type="string" name="PREC">accurate</i>
  <i type="int" name="IALGO">    38</i>
  <i type="logical" name="ADDGRID"> T  </i>
  <i type="int" name="NELMIN">     5</i>
  <i type="int" name="IBRION">     2</i>
  <i name="EDIFF">      0.00000001</i>
  <i name="EDIFFG">     -0.00000001</i>
  <i type="int" name="NSW">    20</i>
  <i type="int" name="ISIF">     4</i>
  <i name="ENCUT">    525.10770000</i>
  <i type="logical" name="LREAL"> F  </i>
  <i type="int" name="ISMEAR">     0</i>
  <i name="SIGMA">      0.01000000</i>
  <i type="logical" name="LWAVE"> F  </i>
  <i type="logical" name="LCHARG"> F  </i>
  <i type="string" name="GGA"> PS</i>
 </incar>
 <kpoints>
  <generation param="Gamma">
   <v type="int" name="divisions">       4        4        4 </v>
   <v name="usershift">      0.00000000       0.00000000       0.00000000 </v>
   <v name="genvec1">      0.25000000       0.00000000       0.00000000 </v>
   <v name="genvec2">      0.00000000       0.25000000       0.00000000 </v>
   <v name="genvec3">      0.00000000       0.00000000       0.25000000 </v>
   <v name="shift">      0.00000000       0.00000000       0.00000000 </v>
  </generation>
  <varray name="kpointlist" >
   <v>       0.00000000       0.00000000       0.00000000 </v>
   <v>       0.25000000       0.00000000       0.00000000 </v>
   <v>       0.50000000       0.00000000       0.00000000 </v>
   <v>       0.25000000       0.25000000       0.00000000 </v>
   <v>       0.50000000       0.25000000       0.00000000 </v>
   <v>       0.50000000       0.50000000       0.00000000 </v>
   <v>       0.25000000       0.25000000       0.25000000 </v>
   <v>       0.50000000       0.25000000       0.25000000 </v>
   <v>       0.50000000       0.50000000       0.25000000 </v>
   <v>       0.50000000       0.50000000       0.50000000 </v>
  </varray>
  <varray name="weights" >
   <v>       0.01562500 </v>
   <v>       0.09375000 </v>
   <v>       0.04687500 </v>
   <v>       0.18750000 </v>
   <v>       0.18750000 </v>
   <v>       0.04687500 </v>
   <v>       0.12500000 </v>
   <v>       0.18750000 </v>
   <v>       0.09375000 </v>
   <v>       0.01562500 </v>
  </varray>
 </kpoints>
 <parameters>
  <separator name="general" >
   <i type="string" name="SYSTEM">unknown system</i>
   <i type="logical" name="LCOMPAT"> F  </i>
  </separator>
  <separator name="electronic" >
   <i type="string" name="PREC">accura</i>
   <i name="ENMAX">    525.10770000</i>
   <i name="ENAUG">    758.78000000</i>
   <i name="EDIFF">      0.00000001</i>
   <i type="int" name="IALGO">    38</i>
   <i type="int" name="IWAVPR">    11</i>
   <i type="int" name="NBANDS">    36</i>
   <i name="NELECT">     56.00000000</i>
   <i type="int" name="TURBO">     0</i>
   <i type="int" name="IRESTART">     0</i>
   <i type="int" name="NREBOOT">     0</i>
   <i type="int" name="NMIN">     0</i>
   <i name="EREF">      0.00000000</i>
   <separator name="electronic smearing" >
    <i type="int" name="ISMEAR">     0</i>
    <i name="SIGMA">      0.01000000</i>
    <i name="KSPACING">      0.50000000</i>
    <i type="logical" name="KGAMMA"> T  </i>
   </separator>
   <separator name="electronic projectors" >
    <i type="logical" name="LREAL"> F  </i>
    <v name="ROPT">      0.00000000      0.00000000</v>
    <i type="int" name="LMAXPAW">  -100</i>
    <i type="int" name="LMAXMIX">     2</i>
    <i type="logical" name="NLSPLINE"> F  </i>
   </separator>
   <separator name="electronic startup" >
    <i type="int" name="ISTART">     0</i>
    <i type="int" name="ICHARG">     2</i>
    <i type="int" name="INIWAV">     1</i>
   </separator>
   <separator name="electronic spin" >
    <i type="int" name="ISPIN">     1</i>
    <i type="logical" name="LNONCOLLINEAR"> F  </i>
    <v name="MAGMOM">      1.00000000      1.00000000      1.00000000      1.00000000      1.00000000      1.00000000      1.00000000      1.00000000</v>
    <i name="NUPDOWN">     -1.00000000</i>
    <i type="logical" name="LSORBIT"> F  </i>
    <v name="SAXIS">      0.00000000      0.00000000      1.00000000</v>
    <i type="logical" name="LSPIRAL"> F  </i>
    <v name="QSPIRAL">      0.00000000      0.00000000      0.00000000</v>
    <i type="logical" name="LZEROZ"> F  </i>
   </separator>
   <separator name="electronic exchange-correlation" >
    <i type="logical" name="LASPH"> F  </i>
    <i type="logical" name="LMETAGGA"> F  </i>
   </separator>
   <separator name="electronic convergence" >
    <i type="int" name="NELM">    60</i>
    <i type="int" name="NELMDL">    -5</i>
    <i type="int" name="NELMIN">     5</i>
    <i name="ENINI">    525.10770000</i>
    <separator name="electronic convergence detail" >
     <i type="logical" name="LDIAG"> T  </i>
     <i type="logical" name="LSUBROT"> F  </i>
     <i name="WEIMIN">      0.00100000</i>
     <i name="EBREAK">      0.00000000</i>
     <i name="DEPER">      0.30000000</i>
     <i type="int" name="NRMM">     4</i>
     <i name="TIME">      0.40000000</i>
    </separator>
   </separator>
   <separator name="electronic mixer" >
    <i name="AMIX">      0.40000000</i>
    <i name="BMIX">      1.00000000</i>
    <i name="AMIN">      0.10000000</i>
    <i name="AMIX_MAG">      1.60000000</i>
    <i name="BMIX_MAG">      1.00000000</i>
    <separator name="electronic mixer details" >
     <i type="int" name="IMIX">     4</i>
     <i type="int" name="MAXMIX">   -45</i>
     <i name="WC">    100.00000000</i>
     <i type="int" name="INIMIX">     1</i>
     <i type="int" name="MIXPRE">     1</i>
     <i type="int" name="MREMOVE">     5</i>
    </separator>
   </separator>
   <separator name="electronic dipolcorrection" >
    <i type="logical" name="LDIPOL"> F  </i>
    <i type="logical" name="LMONO"> F  </i>
    <i type="int" name="IDIPOL">     0</i>
    <i name="EPSILON">      1.00000000</i>
    <v name="DIPOL">   -100.00000000   -100.00000000   -100.00000000</v>
    <i name="EFIELD">      0.00000000</i>
   </separator>
  </separator>
  <separator name="grids" >
   <i type="int" name="NGX">    40</i>
   <i type="int" name="NGY">    40</i>
   <i type="int" name="NGZ">    40</i>
   <i type="int" name="NGXF">    80</i>
   <i type="int" name="NGYF">    80</i>
   <i type="int" name="NGZF">    80</i>
   <i type="logical" name="ADDGRID"> T  </i>
  </separator>
  <separator name="ionic" >
   <i type="int" name="NSW">    20</i>
   <i type="int" name="IBRION">     2</i>
   <i type="int" name="ISIF">     4</i>
   <i name="PSTRESS">      0.00000000</i>
   <i name="EDIFFG">     -0.00000001</i>
   <i type="int" name="NFREE">     1</i>
   <i name="POTIM">      0.50000000</i>
   <i name="SMASS">     -3.00000000</i>
   <i name="SCALEE">      1.00000000</i>
  </separator>
  <separator name="ionic md" >
   <i name="TEBEG">      0.00010000</i>
   <i name="TEEND">      0.00010000</i>
   <i type="int" name="NBLOCK">     1</i>
   <i type="int" name="KBLOCK">    20</i>
   <i type="int" name="NPACO">   256</i>
   <i name="APACO">     16.00000000</i>
  </separator>
  <separator name="symmetry" >
   <i type="int" name="ISYM">     2</i>
   <i name="SYMPREC">      0.00001000</i>
  </separator>
  <separator name="dos" >
   <i type="logical" name="LORBIT"> F  </i>
   <v name="RWIGS">     -1.00000000     -1.00000000</v>
   <i type="int" name="NEDOS">   301</i>
   <i name="EMIN">     10.00000000</i>
   <i name="EMAX">    -10.00000000</i>
   <i name="EFERMI">      0.00000000</i>
  </separator>
  <separator name="writing" >
   <i type="int" name="NWRITE">     2</i>
   <i type="logical" name="LWAVE"> F  </i>
   <i type="logical" name="LCHARG"> F  </i>
   <i type="logical" name="LPARD"> F  </i>
   <i type="logical" name="LVTOT"> F  </i>
   <i type="logical" name="LVHAR"> F  </i>
   <i type="logical" name="LELF"> F  </i>
   <i type="logical" name="LOPTICS"> F  </i>
   <v name="STM">      0.00000000      0.00000000      0.00000000      0.00000000      0.00000000      0.00000000      0.00000000</v>
  </separator>
  <separator name="performance" >
   <i type="int" name="NPAR">     4</i>
   <i type="int" name="NSIM">     4</i>
   <i type="int" name="NBLK">    -1</i>
   <i type="logical" name="LPLANE"> T  </i>
   <i type="logical" name="LSCALAPACK"> T  </i>
   <i type="logical" name="LSCAAWARE"> F  </i>
   <i type="logical" name="LSCALU"> F  </i>
   <i type="logical" name="LASYNC"> F  </i>
   <i type="logical" name="LORBITALREAL"> F  </i>
  </separator>
  <separator name="miscellaneous" >
   <i type="int" name="IDIOT">     3</i>
   <i type="logical" name="LMUSIC"> F  </i>
   <v name="POMASS">     24.30500000     32.06600000</v>
   <v name="DARWINR">      0.00000000      0.00000000</v>
   <v name="DARWINV">      1.00000000      1.00000000</v>
   <i type="logical" name="LCORR"> T  </i>
  </separator>
  <i type="logical" name="GGA_COMPAT"> T  </i>
  <i type="logical" name="LBERRY"> F  </i>
  <i type="int" name="ICORELEVEL">     0</i>
  <i type="logical" name="LDAU"> F  </i>
  <i type="int" name="I_CONSTRAINED_M">     0</i>
  <separator name="electronic exchange-correlation" >
   <i type="string" name="GGA">PS</i>
   <i type="int" name="VOSKOWN">     0</i>
   <i type="logical" name="LHFCALC"> F  </i>
   <i type="string" name="PRECFOCK"></i>
   <i type="logical" name="LSYMGRAD"> F  </i>
   <i type="logical" name="LHFONE"> F  </i>
   <i type="logical" name="LRHFCALC"> F  </i>
   <i type="logical" name="LTHOMAS"> F  </i>
   <i type="logical" name="LMODELHF"> F  </i>
   <i name="ENCUT4O">     -1.00000000</i>
   <i type="int" name="EXXOEP">     0</i>
   <i type="int" name="FOURORBIT">     0</i>
   <i name="AEXX">      0.00000000</i>
   <i name="HFALPHA">      0.00000000</i>
   <i name="MCALPHA">      0.00000000</i>
   <i name="ALDAX">      1.00000000</i>
   <i name="AGGAX">      1.00000000</i>
   <i name="ALDAC">      1.00000000</i>
   <i name="AGGAC">      1.00000000</i>
   <i type="int" name="NKREDX">     1</i>
   <i type="int" name="NKREDY">     1</i>
   <i type="int" name="NKREDZ">     1</i>
   <i type="logical" name="SHIFTRED"> F  </i>
   <i type="logical" name="ODDONLY"> F  </i>
   <i type="logical" name="EVENONLY"> F  </i>
   <i type="int" name="LMAXFOCK">     0</i>
   <i type="int" name="NMAXFOCKAE">     0</i>
   <i type="logical" name="LFOCKAEDFT"> F  </i>
   <i name="HFSCREEN">      0.00000000</i>
   <i name="HFSCREENC">      0.00000000</i>
   <i type="int" name="NBANDSGWLOW">     0</i>
  </separator>
  <separator name="vdW DFT" >
   <i type="logical" name="LUSE_VDW"> F  </i>
   <i name="Zab_VDW">     -0.84910000</i>
   <i name="PARAM1">      0.12340000</i>
   <i name="PARAM2">      1.00000000</i>
   <i name="PARAM3">      0.00000000</i>
  </separator>
  <separator name="model GW" >
   <i type="int" name="MODEL_GW">     0</i>
   <i name="MODEL_EPS0">     10.63886700</i>
   <i name="MODEL_ALPHA">      1.00000000</i>
  </separator>
  <separator name="linear response parameters" >
   <i type="logical" name="LEPSILON"> F  </i>
   <i type="logical" name="LRPA"> F  </i>
   <i type="logical" name="LNABLA"> F  </i>
   <i type="logical" name="LVEL"> F  </i>
   <i type="int" name="KINTER">     0</i>
   <i name="CSHIFT">      0.10000000</i>
   <i name="OMEGAMAX">     -1.00000000</i>
   <i name="DEG_THRESHOLD">      0.00200000</i>
  </separator>
  <separator name="orbital magnetization" >
   <i type="logical" name="NUCIND"> F  </i>
   <v name="MAGPOS">      0.00000000      0.00000000      0.00000000</v>
   <i type="logical" name="LNICSALL"> T  </i>
   <i type="logical" name="ORBITALMAG"> F  </i>
   <i type="logical" name="LMAGBLOCH"> F  </i>
   <i type="logical" name="LCHIMAG"> F  </i>
   <i type="logical" name="LGAUGE"> T  </i>
   <i type="int" name="MAGATOM">     0</i>
   <v name="MAGDIPOL">      0.00000000      0.00000000      0.00000000</v>
   <v name="AVECCONST">      0.00000000      0.00000000      0.00000000</v>
  </separator>
  <separator name="response functions" >
   <i type="logical" name="LADDER"> F  </i>
   <i type="logical" name="LFXC"> F  </i>
   <i type="logical" name="LHARTREE"> T  </i>
   <i type="int" name="IBSE">     0</i>
   <i type="logical" name="LTCTE"> F  </i>
   <i type="logical" name="LTETE"> F  </i>
   <i type="logical" name="LTRIPLET"> F  </i>
   <i type="logical" name="LFXCEPS"> F  </i>
   <i type="logical" name="LFXHEG"> F  </i>
   <i type="logical" name="L2ORDER"> F  </i>
   <i type="logical" name="LUSEW"> F  </i>
   <i name="ENCUTGW">     -2.00000000</i>
   <i name="ENCUTGWSOFT">     -2.00000000</i>
   <i name="ENCUTLF">     -1.00000000</i>
   <i type="int" name="LMAXMP2">    -1</i>
   <i name="SCISSOR">      0.00000000</i>
   <i type="int" name="NOMEGA">     0</i>
   <i type="int" name="NOMEGAR">     0</i>
   <i type="int" name="NBANDSGW">    -1</i>
   <i type="int" name="NBANDSO">    -1</i>
   <i type="int" name="NBANDSV">    -1</i>
   <i type="int" name="NELM">     1</i>
   <i type="int" name="DIM">     3</i>
   <i type="int" name="ANTIRES">     0</i>
   <i name="OMEGAMAX">    -30.00000000</i>
   <i name="OMEGAMIN">    -30.00000000</i>
   <i name="OMEGATL">   -200.00000000</i>
   <i type="int" name="OMEGAGRID">     0</i>
   <i name="CSHIFT">     -0.10000000</i>
   <i type="logical" name="SELFENERGY"> F  </i>
   <i type="logical" name="LSPECTRAL"> F  </i>
   <i type="logical" name="ODDONLYGW"> F  </i>
   <i type="logical" name="EVENONLYGW"> F  </i>
   <i type="int" name="NKREDLFX">     1</i>
   <i type="int" name="NKREDLFY">     1</i>
   <i type="int" name="NKREDLFZ">     1</i>
   <i type="int" name="MAXMEM">  1800</i>
   <i type="int" name="TELESCOPE">     0</i>
   <i type="int" name="TAUPAR">     1</i>
  </separator>
  <separator name="External order field" >
   <i name="OFIELD_KAPPA">      0.00000000</i>
   <v name="OFIELD_K">      0.00000000      0.00000000      0.00000000</v>
   <i name="OFIELD_Q6_NEAR">      0.00000000</i>
   <i name="OFIELD_Q6_FAR">      0.00000000</i>
   <i name="OFIELD_A">      0.00000000</i>
  </separator>
 </parameters>
 <atominfo>
  <atoms>       8 </atoms>
  <types>       2 </types>
  <array name="atoms" >
   <dimension dim="1">ion</dimension>
   <field type="string">element</field>
   <field type="int">atomtype</field>
   <set>
    <rc><c>Mg</c><c>   1</c></rc>
    <rc><c>Mg</c><c>   1</c></rc>
    <rc><c>Mg</c><c>   1</c></rc>
    <rc><c>Mg</c><c>   1</c></rc>
    <rc><c>S </c><c>   2</c></rc>
    <rc><c>S </c><c>   2</c></rc>
    <rc><c>S </c><c>   2</c></rc>
    <rc><c>S </c><c>   2</c></rc>
   </set>
  </array>
  <array name="atomtypes" >
   <dimension dim="1">type</dimension>
   <field type="int">atomspertype</field>
   <field type="string">element</field>
   <field>mass</field>
   <field>valence</field>
   <field type="string">pseudopotential</field>
   <set>
    <rc><c>   4</c><c>Mg</c><c>     24.30500000</c><c>      8.00000000</c><c>  PAW_PBE Mg_pv 13Apr2007               </c></rc>
    <rc><c>   4</c><c>S </c><c>     32.06600000</c><c>      6.00000000</c><c>  PAW_PBE S 06Sep2000                   </c></rc>
   </set>
  </array>
 </atominfo>
 <structure name="initialpos" >
  <crystal>
   <varray name="basis" >
    <v>       5.21528491       0.00000000       0.00000000 </v>
    <v>       0.00000000       5.21528491       0.00000000 </v>
    <v>       0.00000000       0.00000000       5.21528491 </v>
   </varray>
   <i name="volume">    141.85155994 </i>
   <varray name="rec_basis" >
    <v>       0.19174408       0.00000000       0.00000000 </v>
    <v>       0.00000000       0.19174408       0.00000000 </v>
    <v>       0.00000000       0.00000000       0.19174408 </v>
   </varray>
  </crystal>
  <varray name="positions" >
   <v>       0.00000000       0.00000000       0.00000000 </v>
   <v>       0.00000000       0.50000000       0.50000000 </v>
   <v>       0.50000000       0.00000000       0.50000000 </v>
   <v>       0.50000000       0.50000000       0.00000000 </v>
   <v>       0.50000000       0.00000000       0.00000000 </v>
   <v>       0.50000000       0.50000000       0.50000000 </v>
   <v>       0.00000000       0.00000000       0.50000000 </v>
   <v>       0.00000000       0.50000000       0.00000000 </v>
  </varray>
 </structure>
 <calculation>
  <scstep>
   <time name="dav">    0.32    0.32</time>
   <time name="total">    0.37    0.38</time>
   <energy>
    <i name="alphaZ">    149.68198211 </i>
    <i name="ewald">  -3109.52470188 </i>
    <i name="hartreedc">  -1173.24357592 </i>
    <i name="XCdc">    159.08860661 </i>
    <i name="pawpsdc">   3462.71711756 </i>
    <i name="pawaedc">  -3919.80126840 </i>
    <i name="eentropy">     -0.00192109 </i>
    <i name="bandstr">   -433.68987949 </i>
    <i name="atom">   5321.70543053 </i>
    <i name="e_fr_energy">    456.93179001 </i>
    <i name="e_wo_entrp">    456.93371111 </i>
    <i name="e_0_energy">    456.93275056 </i>
   </energy>
  </scstep>
  <scstep>
   <time name="dav">    0.27    0.27</time>
   <time name="total">    0.28    0.28</time>
   <energy>
    <i name="e_fr_energy">     -6.22205092 </i>
    <i name="e_wo_entrp">     -6.22205092 </i>
    <i name="e_0_energy">     -6.22205092 </i>
   </energy>
  </scstep>
  <scstep>
   <time name="dav">    0.26    0.26</time>
   <time name="total">    0.26    0.26</time>
   <energy>
    <i name="e_fr_energy">    -36.74038279 </i>
    <i name="e_wo_entrp">    -36.74038279 </i>
    <i name="e_0_energy">    -36.74038279 </i>
   </energy>
  </scstep>
  <scstep>
   <time name="dav">    0.27    0.27</time>
   <time name="total">    0.27    0.27</time>
   <energy>
    <i name="e_fr_energy">    -37.70125189 </i>
    <i name="e_wo_entrp">    -37.70125189 </i>
    <i name="e_0_energy">    -37.70125189 </i>
   </energy>
  </scstep>
  <scstep>
   <time name="dav">    0.26    0.27</time>
   <time name="total">    0.33    0.33</time>
   <energy>
    <i name="e_fr_energy">    -37.72592059 </i>
    <i name="e_wo_entrp">    -37.72592059 </i>
    <i name="e_0_energy">    -37.72592059 </i>
   </energy>
  </scstep>
  <scstep>
   <time name="dav">    0.24    0.24</time>
   <time name="total">    0.35    0.35</time>
   <energy>
    <i name="e_fr_energy">    -36.38601887 </i>
    <i name="e_wo_entrp">    -36.38601887 </i>
    <i name="e_0_energy">    -36.38601887 </i>
   </energy>
  </scstep>
  <scstep>
   <time name="dav">    0.29    0.29</time>
   <time name="total">    0.39    0.39</time>
   <energy>
    <i name="e_fr_energy">    -36.22639199 </i>
    <i name="e_wo_entrp">    -36.22639199 </i>
    <i name="e_0_energy">    -36.22639199 </i>
   </energy>
  </scstep>
  <scstep>
   <time name="dav">    0.25    0.25</time>
   <time name="total">    0.35    0.36</time>
   <energy>
    <i name="e_fr_energy">    -36.21914245 </i>
    <i name="e_wo_entrp">    -36.21914245 </i>
    <i name="e_0_energy">    -36.21914245 </i>
   </energy>
  </scstep>
  <scstep>
   <time name="dav">    0.27    0.27</time>
   <time name="total">    0.38    0.38</time>
   <energy>
    <i name="e_fr_energy">    -36.21834741 </i>
    <i name="e_wo_entrp">    -36.21834741 </i>
    <i name="e_0_energy">    -36.21834741 </i>
   </energy>
  </scstep>
  <scstep>
   <time name="dav">    0.28    0.28</time>
   <time name="total">    0.39    0.39</time>
   <energy>
    <i name="e_fr_energy">    -36.21837753 </i>
    <i name="e_wo_entrp">    -36.21837753 </i>
    <i name="e_0_energy">    -36.21837753 </i>
   </energy>
  </scstep>
  <scstep>
   <time name="dav">    0.26    0.26</time>
   <time name="total">    0.36    0.37</time>
   <energy>
    <i name="e_fr_energy">    -36.21837398 </i>
    <i name="e_wo_entrp">    -36.21837398 </i>
    <i name="e_0_energy">    -36.21837398 </i>
   </energy>
  </scstep>
  <scstep>
   <time name="dav">    0.28    0.28</time>
   <time name="total">    0.39    0.39</time>
   <energy>
    <i name="e_fr_energy">    -36.21837320 </i>
    <i name="e_wo_entrp">    -36.21837320 </i>
    <i name="e_0_energy">    -36.21837320 </i>
   </energy>
  </scstep>
  <scstep>
   <time name="dav">    0.28    0.28</time>
   <time name="total">    0.38    0.39</time>
   <energy>
    <i name="e_fr_energy">    -36.21837317 </i>
    <i name="e_wo_entrp">    -36.21837317 </i>
    <i name="e_0_energy">    -36.21837317 </i>
   </energy>
  </scstep>
  <scstep>
   <time name="dav">    0.26    0.26</time>
   <time name="total">    0.37    0.37</time>
   <energy>
    <i name="e_fr_energy">    -36.21837314 </i>
    <i name="e_wo_entrp">    -36.21837314 </i>
    <i name="e_0_energy">    -36.21837314 </i>
   </energy>
  </scstep>
  <scstep>
   <time name="dav">    0.23    0.23</time>
   <time name="total">    0.33    0.34</time>
   <energy>
    <i name="e_fr_energy">    -36.21837316 </i>
    <i name="e_wo_entrp">    -36.21837316 </i>
    <i name="e_0_energy">    -36.21837316 </i>
   </energy>
  </scstep>
  <scstep>
   <time name="dav">    0.16    0.17</time>
   <time name="total">    0.21    0.21</time>
   <energy>
    <i name="alphaZ">    149.68198211 </i>
    <i name="ewald">  -3109.52470188 </i>
    <i name="hartreedc">  -1163.88317946 </i>
    <i name="XCdc">    161.11025410 </i>
    <i name="pawpsdc">   4625.13046904 </i>
    <i name="pawaedc">  -5077.89087035 </i>
    <i name="eentropy">      0.00000000 </i>
    <i name="bandstr">   -942.54775723 </i>
    <i name="atom">   5321.70543053 </i>
    <i name="e_fr_energy">    -36.21837316 </i>
    <i name="e_wo_entrp">    -36.21837316 </i>
    <i name="e_0_energy">    -36.21837316 </i>
   </energy>
  </scstep>
  <structure>
   <crystal>
    <varray name="basis" >
     <v>       5.21528491       0.00000000       0.00000000 </v>
     <v>       0.00000000       5.21528491       0.00000000 </v>
     <v>       0.00000000       0.00000000       5.21528491 </v>
    </varray>
    <i name="volume">    141.85155994 </i>
    <varray name="rec_basis" >
     <v>       0.19174408       0.00000000       0.00000000 </v>
     <v>       0.00000000       0.19174408       0.00000000 </v>
     <v>       0.00000000       0.00000000       0.19174408 </v>
    </varray>
   </crystal>
   <varray name="positions" >
    <v>       0.00000000       0.00000000       0.00000000 </v>
    <v>       0.00000000       0.50000000       0.50000000 </v>
    <v>       0.50000000       0.00000000       0.50000000 </v>
    <v>       0.50000000       0.50000000       0.00000000 </v>
    <v>       0.50000000       0.00000000       0.00000000 </v>
    <v>       0.50000000       0.50000000       0.50000000 </v>
    <v>       0.00000000       0.00000000       0.50000000 </v>
    <v>       0.00000000       0.50000000       0.00000000 </v>
   </varray>
  </structure>
  <varray name="forces" >
   <v>       0.00000000       0.00000000       0.00000000 </v>
   <v>       0.00000000       0.00000000       0.00000000 </v>
   <v>       0.00000000       0.00000000       0.00000000 </v>
   <v>       0.00000000       0.00000000       0.00000000 </v>
   <v>       0.00000000       0.00000000       0.00000000 </v>
   <v>       0.00000000       0.00000000       0.00000000 </v>
   <v>       0.00000000       0.00000000       0.00000000 </v>
   <v>       0.00000000       0.00000000       0.00000000 </v>
  </varray>
  <varray name="stress" >
   <v>     -14.94724155       0.00000000       0.00000000 </v>
   <v>       0.00000000     -14.94724155       0.00000000 </v>
   <v>       0.00000000       0.00000000     -14.94724155 </v>
  </varray>
  <energy>
   <i name="e_fr_energy">    -36.21837316 </i>
   <i name="e_wo_entrp">    -36.21837316 </i>
   <i name="e_0_energy">      0.00000000 </i>
  </energy>
  <time name="totalsc">    6.43    6.48</time>
  <eigenvalues>
   <array>
    <dimension dim="1">band</dimension>
    <dimension dim="2">kpoint</dimension>
    <dimension dim="3">spin</dimension>
    <field>eigene</field>
    <field>occ</field>
    <set>
     <set comment="spin 1">
      <set comment="kpoint 1">
       <r>  -37.8568    1.0000 </r>
       <r>  -37.8568    1.0000 </r>
       <r>  -37.8568    1.0000 </r>
       <r>  -37.8534    1.0000 </r>
       <r>  -37.8534    1.0000 </r>
       <r>  -37.8534    1.0000 </r>
       <r>  -37.8534    1.0000 </r>
       <r>  -37.8534    1.0000 </r>
       <r>  -37.8534    1.0000 </r>
       <r>  -37.8506    1.0000 </r>
       <r>  -37.8506    1.0000 </r>
       <r>  -37.8506    1.0000 </r>
       <r>   -9.2322    1.0000 </r>
       <r>   -7.5505    1.0000 </r>
       <r>   -7.5505    1.0000 </r>
       <r>   -7.5505    1.0000 </r>
       <r>   -0.8012    1.0000 </r>
       <r>   -0.8012    1.0000 </r>
       <r>   -0.8012    1.0000 </r>
       <r>    1.7252    1.0000 </r>
       <r>    1.7252    1.0000 </r>
       <r>    1.7252    1.0000 </r>
       <r>    1.7252    1.0000 </r>
       <r>    1.7252    1.0000 </r>
       <r>    1.7252    1.0000 </r>
       <r>    3.4145    1.0000 </r>
       <r>    3.4145    1.0000 </r>
       <r>    3.4145    1.0000 </r>
       <r>    6.1096    0.0000 </r>
       <r>    6.1096    0.0000 </r>
       <r>    6.1096    0.0000 </r>
       <r>    6.9560    0.0000 </r>
       <r>    7.6756    0.0000 </r>
       <r>    7.6756    0.0000 </r>
       <r>    7.6756    0.0000 </r>
       <r>   11.2703    0.0000 </r>
      </set>
      <set comment="kpoint 2">
       <r>  -37.8563    1.0000 </r>
       <r>  -37.8563    1.0000 </r>
       <r>  -37.8561    1.0000 </r>
       <r>  -37.8538    1.0000 </r>
       <r>  -37.8538    1.0000 </r>
       <r>  -37.8534    1.0000 </r>
       <r>  -37.8534    1.0000 </r>
       <r>  -37.8529    1.0000 </r>
       <r>  -37.8529    1.0000 </r>
       <r>  -37.8516    1.0000 </r>
       <r>  -37.8510    1.0000 </r>
       <r>  -37.8510    1.0000 </r>
       <r>   -9.0300    1.0000 </r>
       <r>   -7.8567    1.0000 </r>
       <r>   -7.5267    1.0000 </r>
       <r>   -7.5267    1.0000 </r>
       <r>   -0.5496    1.0000 </r>
       <r>   -0.5496    1.0000 </r>
       <r>   -0.3417    1.0000 </r>
       <r>    1.1491    1.0000 </r>
       <r>    1.1491    1.0000 </r>
       <r>    1.3463    1.0000 </r>
       <r>    1.3463    1.0000 </r>
       <r>    1.9168    1.0000 </r>
       <r>    1.9168    1.0000 </r>
       <r>    2.3866    1.0000 </r>
       <r>    3.0875    1.0000 </r>
       <r>    3.0875    1.0000 </r>
       <r>    6.7482    0.0000 </r>
       <r>    7.1349    0.0000 </r>
       <r>    7.1349    0.0000 </r>
       <r>    7.9907    0.0000 </r>
       <r>    8.1174    0.0000 </r>
       <r>    8.7807    0.0000 </r>
       <r>    8.7807    0.0000 </r>
       <r>   10.2931    0.0000 </r>
      </set>
      <set comment="kpoint 3">
       <r>  -37.8550    1.0000 </r>
       <r>  -37.8550    1.0000 </r>
       <r>  -37.8550    1.0000 </r>
       <r>  -37.8550    1.0000 </r>
       <r>  -37.8540    1.0000 </r>
       <r>  -37.8540    1.0000 </r>
       <r>  -37.8533    1.0000 </r>
       <r>  -37.8533    1.0000 </r>
       <r>  -37.8521    1.0000 </r>
       <r>  -37.8521    1.0000 </r>
       <r>  -37.8521    1.0000 </r>
       <r>  -37.8521    1.0000 </r>
       <r>   -8.4923    1.0000 </r>
       <r>   -8.4923    1.0000 </r>
       <r>   -7.5025    1.0000 </r>
       <r>   -7.5025    1.0000 </r>
       <r>    0.1656    1.0000 </r>
       <r>    0.1656    1.0000 </r>
       <r>    0.1656    1.0000 </r>
       <r>    0.1656    1.0000 </r>
       <r>    0.8376    1.0000 </r>
       <r>    0.8376    1.0000 </r>
       <r>    1.0389    1.0000 </r>
       <r>    1.0389    1.0000 </r>
       <r>    2.4395    1.0000 </r>
       <r>    2.4395    1.0000 </r>
       <r>    2.4395    1.0000 </r>
       <r>    2.4395    1.0000 </r>
       <r>    8.3245    0.0000 </r>
       <r>    8.3245    0.0000 </r>
       <r>    8.6020    0.0000 </r>
       <r>    8.6020    0.0000 </r>
       <r>    8.9112    0.0000 </r>
       <r>    8.9112    0.0000 </r>
       <r>   11.2459    0.0000 </r>
       <r>   11.2463    0.0000 </r>
      </set>
      <set comment="kpoint 4">
       <r>  -37.8560    1.0000 </r>
       <r>  -37.8560    1.0000 </r>
       <r>  -37.8558    1.0000 </r>
       <r>  -37.8547    1.0000 </r>
       <r>  -37.8535    1.0000 </r>
       <r>  -37.8535    1.0000 </r>
       <r>  -37.8529    1.0000 </r>
       <r>  -37.8528    1.0000 </r>
       <r>  -37.8528    1.0000 </r>
       <r>  -37.8528    1.0000 </r>
       <r>  -37.8514    1.0000 </r>
       <r>  -37.8508    1.0000 </r>
       <r>   -8.8408    1.0000 </r>
       <r>   -7.7851    1.0000 </r>
       <r>   -7.7851    1.0000 </r>
       <r>   -7.5484    1.0000 </r>
       <r>   -0.3651    1.0000 </r>
       <r>   -0.3651    1.0000 </r>
       <r>   -0.3015    1.0000 </r>
       <r>    0.2087    1.0000 </r>
       <r>    1.3617    1.0000 </r>
       <r>    1.3617    1.0000 </r>
       <r>    1.4464    1.0000 </r>
       <r>    1.8151    1.0000 </r>
       <r>    1.8151    1.0000 </r>
       <r>    2.0467    1.0000 </r>
       <r>    2.6966    1.0000 </r>
       <r>    3.3073    1.0000 </r>
       <r>    7.2284    0.0000 </r>
       <r>    7.6777    0.0000 </r>
       <r>    7.6777    0.0000 </r>
       <r>    8.6356    0.0000 </r>
       <r>    9.0479    0.0000 </r>
       <r>    9.0479    0.0000 </r>
       <r>   10.0075    0.0000 </r>
       <r>   10.5086    0.0000 </r>
      </set>
      <set comment="kpoint 5">
       <r>  -37.8556    1.0000 </r>
       <r>  -37.8556    1.0000 </r>
       <r>  -37.8548    1.0000 </r>
       <r>  -37.8548    1.0000 </r>
       <r>  -37.8547    1.0000 </r>
       <r>  -37.8547    1.0000 </r>
       <r>  -37.8526    1.0000 </r>
       <r>  -37.8526    1.0000 </r>
       <r>  -37.8525    1.0000 </r>
       <r>  -37.8525    1.0000 </r>
       <r>  -37.8516    1.0000 </r>
       <r>  -37.8516    1.0000 </r>
       <r>   -8.3467    1.0000 </r>
       <r>   -8.3467    1.0000 </r>
       <r>   -7.6414    1.0000 </r>
       <r>   -7.6414    1.0000 </r>
       <r>   -0.3143    1.0000 </r>
       <r>   -0.3143    1.0000 </r>
       <r>    0.3177    1.0000 </r>
       <r>    0.3177    1.0000 </r>
       <r>    0.4018    1.0000 </r>
       <r>    0.4018    1.0000 </r>
       <r>    1.9486    1.0000 </r>
       <r>    1.9486    1.0000 </r>
       <r>    1.9546    1.0000 </r>
       <r>    1.9546    1.0000 </r>
       <r>    2.7344    1.0000 </r>
       <r>    2.7344    1.0000 </r>
       <r>    8.5786    0.0000 </r>
       <r>    8.5786    0.0000 </r>
       <r>    9.1126    0.0000 </r>
       <r>    9.1126    0.0000 </r>
       <r>    9.7827    0.0000 </r>
       <r>    9.7827    0.0000 </r>
       <r>   10.3748    0.0000 </r>
       <r>   10.4027    0.0000 </r>
      </set>
      <set comment="kpoint 6">
       <r>  -37.8557    1.0000 </r>
       <r>  -37.8557    1.0000 </r>
       <r>  -37.8557    1.0000 </r>
       <r>  -37.8557    1.0000 </r>
       <r>  -37.8536    1.0000 </r>
       <r>  -37.8536    1.0000 </r>
       <r>  -37.8536    1.0000 </r>
       <r>  -37.8536    1.0000 </r>
       <r>  -37.8517    1.0000 </r>
       <r>  -37.8517    1.0000 </r>
       <r>  -37.8517    1.0000 </r>
       <r>  -37.8517    1.0000 </r>
       <r>   -7.9916    1.0000 </r>
       <r>   -7.9916    1.0000 </r>
       <r>   -7.9916    1.0000 </r>
       <r>   -7.9916    1.0000 </r>
       <r>   -0.3088    1.0000 </r>
       <r>   -0.3088    1.0000 </r>
       <r>   -0.3088    1.0000 </r>
       <r>   -0.3088    1.0000 </r>
       <r>    1.0654    1.0000 </r>
       <r>    1.0654    1.0000 </r>
       <r>    1.0654    1.0000 </r>
       <r>    1.0654    1.0000 </r>
       <r>    2.7813    1.0000 </r>
       <r>    2.7813    1.0000 </r>
       <r>    2.7813    1.0000 </r>
       <r>    2.7813    1.0000 </r>
       <r>    8.9836    0.0000 </r>
       <r>    8.9836    0.0000 </r>
       <r>    8.9836    0.0000 </r>
       <r>    8.9836    0.0000 </r>
       <r>   10.8779    0.0000 </r>
       <r>   10.8782    0.0000 </r>
       <r>   10.8789    0.0000 </r>
       <r>   10.8814    0.0000 </r>
      </set>
      <set comment="kpoint 7">
       <r>  -37.8563    1.0000 </r>
       <r>  -37.8563    1.0000 </r>
       <r>  -37.8563    1.0000 </r>
       <r>  -37.8542    1.0000 </r>
       <r>  -37.8534    1.0000 </r>
       <r>  -37.8534    1.0000 </r>
       <r>  -37.8534    1.0000 </r>
       <r>  -37.8525    1.0000 </r>
       <r>  -37.8525    1.0000 </r>
       <r>  -37.8525    1.0000 </r>
       <r>  -37.8511    1.0000 </r>
       <r>  -37.8511    1.0000 </r>
       <r>   -8.6676    1.0000 </r>
       <r>   -7.7530    1.0000 </r>
       <r>   -7.7530    1.0000 </r>
       <r>   -7.7530    1.0000 </r>
       <r>   -0.6512    1.0000 </r>
       <r>   -0.6512    1.0000 </r>
       <r>   -0.6512    1.0000 </r>
       <r>    0.5824    1.0000 </r>
       <r>    1.1909    1.0000 </r>
       <r>    1.1909    1.0000 </r>
       <r>    1.1909    1.0000 </r>
       <r>    2.2047    1.0000 </r>
       <r>    2.2047    1.0000 </r>
       <r>    2.2047    1.0000 </r>
       <r>    3.0910    1.0000 </r>
       <r>    3.0910    1.0000 </r>
       <r>    7.7238    0.0000 </r>
       <r>    7.7238    0.0000 </r>
       <r>    7.7238    0.0000 </r>
       <r>    8.2188    0.0000 </r>
       <r>   10.0494    0.0000 </r>
       <r>   10.0494    0.0000 </r>
       <r>   10.0494    0.0000 </r>
       <r>   11.1475    0.0000 </r>
      </set>
      <set comment="kpoint 8">
       <r>  -37.8566    1.0000 </r>
       <r>  -37.8566    1.0000 </r>
       <r>  -37.8558    1.0000 </r>
       <r>  -37.8558    1.0000 </r>
       <r>  -37.8534    1.0000 </r>
       <r>  -37.8534    1.0000 </r>
       <r>  -37.8523    1.0000 </r>
       <r>  -37.8523    1.0000 </r>
       <r>  -37.8518    1.0000 </r>
       <r>  -37.8518    1.0000 </r>
       <r>  -37.8518    1.0000 </r>
       <r>  -37.8518    1.0000 </r>
       <r>   -8.2267    1.0000 </r>
       <r>   -8.2267    1.0000 </r>
       <r>   -7.7202    1.0000 </r>
       <r>   -7.7202    1.0000 </r>
       <r>   -0.9155    1.0000 </r>
       <r>   -0.9155    1.0000 </r>
       <r>   -0.3637    1.0000 </r>
       <r>   -0.3637    1.0000 </r>
       <r>    1.2603    1.0000 </r>
       <r>    1.2603    1.0000 </r>
       <r>    2.2575    1.0000 </r>
       <r>    2.2575    1.0000 </r>
       <r>    2.4932    1.0000 </r>
       <r>    2.4932    1.0000 </r>
       <r>    2.6191    1.0000 </r>
       <r>    2.6191    1.0000 </r>
       <r>    8.5611    0.0000 </r>
       <r>    8.5611    0.0000 </r>
       <r>    8.9044    0.0000 </r>
       <r>    8.9044    0.0000 </r>
       <r>    9.3886    0.0000 </r>
       <r>    9.3886    0.0000 </r>
       <r>    9.9412    0.0000 </r>
       <r>    9.9412    0.0000 </r>
      </set>
      <set comment="kpoint 9">
       <r>  -37.8568    1.0000 </r>
       <r>  -37.8568    1.0000 </r>
       <r>  -37.8568    1.0000 </r>
       <r>  -37.8568    1.0000 </r>
       <r>  -37.8524    1.0000 </r>
       <r>  -37.8524    1.0000 </r>
       <r>  -37.8524    1.0000 </r>
       <r>  -37.8524    1.0000 </r>
       <r>  -37.8516    1.0000 </r>
       <r>  -37.8516    1.0000 </r>
       <r>  -37.8516    1.0000 </r>
       <r>  -37.8516    1.0000 </r>
       <r>   -7.9533    1.0000 </r>
       <r>   -7.9533    1.0000 </r>
       <r>   -7.9533    1.0000 </r>
       <r>   -7.9533    1.0000 </r>
       <r>   -1.0178    1.0000 </r>
       <r>   -1.0178    1.0000 </r>
       <r>   -1.0178    1.0000 </r>
       <r>   -1.0178    1.0000 </r>
       <r>    2.0476    1.0000 </r>
       <r>    2.0476    1.0000 </r>
       <r>    2.0476    1.0000 </r>
       <r>    2.0476    1.0000 </r>
       <r>    2.8012    1.0000 </r>
       <r>    2.8012    1.0000 </r>
       <r>    2.8012    1.0000 </r>
       <r>    2.8012    1.0000 </r>
       <r>    8.6134    0.0000 </r>
       <r>    8.6134    0.0000 </r>
       <r>    8.6134    0.0000 </r>
       <r>    8.6134    0.0000 </r>
       <r>    9.8106    0.0000 </r>
       <r>    9.8106    0.0000 </r>
       <r>    9.8106    0.0000 </r>
       <r>    9.8106    0.0000 </r>
      </set>
      <set comment="kpoint 10">
       <r>  -37.8577    1.0000 </r>
       <r>  -37.8577    1.0000 </r>
       <r>  -37.8577    1.0000 </r>
       <r>  -37.8577    1.0000 </r>
       <r>  -37.8517    1.0000 </r>
       <r>  -37.8517    1.0000 </r>
       <r>  -37.8517    1.0000 </r>
       <r>  -37.8517    1.0000 </r>
       <r>  -37.8517    1.0000 </r>
       <r>  -37.8517    1.0000 </r>
       <r>  -37.8517    1.0000 </r>
       <r>  -37.8517    1.0000 </r>
       <r>   -7.9137    1.0000 </r>
       <r>   -7.9137    1.0000 </r>
       <r>   -7.9137    1.0000 </r>
       <r>   -7.9137    1.0000 </r>
       <r>   -1.4443    1.0000 </r>
       <r>   -1.4443    1.0000 </r>
       <r>   -1.4443    1.0000 </r>
       <r>   -1.4443    1.0000 </r>
       <r>    2.8215    1.0000 </r>
       <r>    2.8215    1.0000 </r>
       <r>    2.8215    1.0000 </r>
       <r>    2.8215    1.0000 </r>
       <r>    2.8215    1.0000 </r>
       <r>    2.8215    1.0000 </r>
       <r>    2.8215    1.0000 </r>
       <r>    2.8215    1.0000 </r>
       <r>    7.8058    0.0000 </r>
       <r>    7.8058    0.0000 </r>
       <r>    7.8058    0.0000 </r>
       <r>    7.8058    0.0000 </r>
       <r>   10.2357    0.0000 </r>
       <r>   10.2357    0.0000 </r>
       <r>   10.2357    0.0000 </r>
       <r>   10.2357    0.0000 </r>
      </set>
     </set>
    </set>
   </array>
  </eigenvalues>
  <separator name="orbital magnetization" >
   <v name="MAGDIPOLOUT">      0.00000000      0.00000000      0.00000000</v>
  </separator>
  <dos>
   <i name="efermi">      3.50396270 </i>
   <total>
    <array>
     <dimension dim="1">gridpoints</dimension>
     <dimension dim="2">spin</dimension>
     <field>energy</field>
     <field>total</field>
     <field>integrated</field>
     <set>
      <set comment="spin 1">
       <r>   -40.3141     0.0000     0.0000 </r>
       <r>   -40.1340     0.0000     0.0000 </r>
       <r>   -39.9538     0.0000     0.0000 </r>
       <r>   -39.7737     0.0000     0.0000 </r>
       <r>   -39.5936     0.0000     0.0000 </r>
       <r>   -39.4134     0.0000     0.0000 </r>
       <r>   -39.2333     0.0000     0.0000 </r>
       <r>   -39.0532     0.0000     0.0000 </r>
       <r>   -38.8730     0.0000     0.0000 </r>
       <r>   -38.6929     0.0000     0.0000 </r>
       <r>   -38.5127     0.0000     0.0000 </r>
       <r>   -38.3326     0.0000     0.0000 </r>
       <r>   -38.1525     0.0000     0.0000 </r>
       <r>   -37.9723     0.0000     0.0000 </r>
       <r>   -37.7922   133.2327    24.0000 </r>
       <r>   -37.6121     0.0000    24.0000 </r>
       <r>   -37.4319     0.0000    24.0000 </r>
       <r>   -37.2518     0.0000    24.0000 </r>
       <r>   -37.0717     0.0000    24.0000 </r>
       <r>   -36.8915     0.0000    24.0000 </r>
       <r>   -36.7114     0.0000    24.0000 </r>
       <r>   -36.5313     0.0000    24.0000 </r>
       <r>   -36.3511     0.0000    24.0000 </r>
       <r>   -36.1710     0.0000    24.0000 </r>
       <r>   -35.9908     0.0000    24.0000 </r>
       <r>   -35.8107     0.0000    24.0000 </r>
       <r>   -35.6306     0.0000    24.0000 </r>
       <r>   -35.4504     0.0000    24.0000 </r>
       <r>   -35.2703     0.0000    24.0000 </r>
       <r>   -35.0902     0.0000    24.0000 </r>
       <r>   -34.9100     0.0000    24.0000 </r>
       <r>   -34.7299     0.0000    24.0000 </r>
       <r>   -34.5498     0.0000    24.0000 </r>
       <r>   -34.3696     0.0000    24.0000 </r>
       <r>   -34.1895     0.0000    24.0000 </r>
       <r>   -34.0093     0.0000    24.0000 </r>
       <r>   -33.8292     0.0000    24.0000 </r>
       <r>   -33.6491     0.0000    24.0000 </r>
       <r>   -33.4689     0.0000    24.0000 </r>
       <r>   -33.2888     0.0000    24.0000 </r>
       <r>   -33.1087     0.0000    24.0000 </r>
       <r>   -32.9285     0.0000    24.0000 </r>
       <r>   -32.7484     0.0000    24.0000 </r>
       <r>   -32.5683     0.0000    24.0000 </r>
       <r>   -32.3881     0.0000    24.0000 </r>
       <r>   -32.2080     0.0000    24.0000 </r>
       <r>   -32.0279     0.0000    24.0000 </r>
       <r>   -31.8477     0.0000    24.0000 </r>
       <r>   -31.6676     0.0000    24.0000 </r>
       <r>   -31.4874     0.0000    24.0000 </r>
       <r>   -31.3073     0.0000    24.0000 </r>
       <r>   -31.1272     0.0000    24.0000 </r>
       <r>   -30.9470     0.0000    24.0000 </r>
       <r>   -30.7669     0.0000    24.0000 </r>
       <r>   -30.5868     0.0000    24.0000 </r>
       <r>   -30.4066     0.0000    24.0000 </r>
       <r>   -30.2265     0.0000    24.0000 </r>
       <r>   -30.0464     0.0000    24.0000 </r>
       <r>   -29.8662     0.0000    24.0000 </r>
       <r>   -29.6861     0.0000    24.0000 </r>
       <r>   -29.5060     0.0000    24.0000 </r>
       <r>   -29.3258     0.0000    24.0000 </r>
       <r>   -29.1457     0.0000    24.0000 </r>
       <r>   -28.9655     0.0000    24.0000 </r>
       <r>   -28.7854     0.0000    24.0000 </r>
       <r>   -28.6053     0.0000    24.0000 </r>
       <r>   -28.4251     0.0000    24.0000 </r>
       <r>   -28.2450     0.0000    24.0000 </r>
       <r>   -28.0649     0.0000    24.0000 </r>
       <r>   -27.8847     0.0000    24.0000 </r>
       <r>   -27.7046     0.0000    24.0000 </r>
       <r>   -27.5245     0.0000    24.0000 </r>
       <r>   -27.3443     0.0000    24.0000 </r>
       <r>   -27.1642     0.0000    24.0000 </r>
       <r>   -26.9840     0.0000    24.0000 </r>
       <r>   -26.8039     0.0000    24.0000 </r>
       <r>   -26.6238     0.0000    24.0000 </r>
       <r>   -26.4436     0.0000    24.0000 </r>
       <r>   -26.2635     0.0000    24.0000 </r>
       <r>   -26.0834     0.0000    24.0000 </r>
       <r>   -25.9032     0.0000    24.0000 </r>
       <r>   -25.7231     0.0000    24.0000 </r>
       <r>   -25.5430     0.0000    24.0000 </r>
       <r>   -25.3628     0.0000    24.0000 </r>
       <r>   -25.1827     0.0000    24.0000 </r>
       <r>   -25.0026     0.0000    24.0000 </r>
       <r>   -24.8224     0.0000    24.0000 </r>
       <r>   -24.6423     0.0000    24.0000 </r>
       <r>   -24.4621     0.0000    24.0000 </r>
       <r>   -24.2820     0.0000    24.0000 </r>
       <r>   -24.1019     0.0000    24.0000 </r>
       <r>   -23.9217     0.0000    24.0000 </r>
       <r>   -23.7416     0.0000    24.0000 </r>
       <r>   -23.5615     0.0000    24.0000 </r>
       <r>   -23.3813     0.0000    24.0000 </r>
       <r>   -23.2012     0.0000    24.0000 </r>
       <r>   -23.0211     0.0000    24.0000 </r>
       <r>   -22.8409     0.0000    24.0000 </r>
       <r>   -22.6608     0.0000    24.0000 </r>
       <r>   -22.4806     0.0000    24.0000 </r>
       <r>   -22.3005     0.0000    24.0000 </r>
       <r>   -22.1204     0.0000    24.0000 </r>
       <r>   -21.9402     0.0000    24.0000 </r>
       <r>   -21.7601     0.0000    24.0000 </r>
       <r>   -21.5800     0.0000    24.0000 </r>
       <r>   -21.3998     0.0000    24.0000 </r>
       <r>   -21.2197     0.0000    24.0000 </r>
       <r>   -21.0396     0.0000    24.0000 </r>
       <r>   -20.8594     0.0000    24.0000 </r>
       <r>   -20.6793     0.0000    24.0000 </r>
       <r>   -20.4992     0.0000    24.0000 </r>
       <r>   -20.3190     0.0000    24.0000 </r>
       <r>   -20.1389     0.0000    24.0000 </r>
       <r>   -19.9587     0.0000    24.0000 </r>
       <r>   -19.7786     0.0000    24.0000 </r>
       <r>   -19.5985     0.0000    24.0000 </r>
       <r>   -19.4183     0.0000    24.0000 </r>
       <r>   -19.2382     0.0000    24.0000 </r>
       <r>   -19.0581     0.0000    24.0000 </r>
       <r>   -18.8779     0.0000    24.0000 </r>
       <r>   -18.6978     0.0000    24.0000 </r>
       <r>   -18.5177     0.0000    24.0000 </r>
       <r>   -18.3375     0.0000    24.0000 </r>
       <r>   -18.1574     0.0000    24.0000 </r>
       <r>   -17.9772     0.0000    24.0000 </r>
       <r>   -17.7971     0.0000    24.0000 </r>
       <r>   -17.6170     0.0000    24.0000 </r>
       <r>   -17.4368     0.0000    24.0000 </r>
       <r>   -17.2567     0.0000    24.0000 </r>
       <r>   -17.0766     0.0000    24.0000 </r>
       <r>   -16.8964     0.0000    24.0000 </r>
       <r>   -16.7163     0.0000    24.0000 </r>
       <r>   -16.5362     0.0000    24.0000 </r>
       <r>   -16.3560     0.0000    24.0000 </r>
       <r>   -16.1759     0.0000    24.0000 </r>
       <r>   -15.9958     0.0000    24.0000 </r>
       <r>   -15.8156     0.0000    24.0000 </r>
       <r>   -15.6355     0.0000    24.0000 </r>
       <r>   -15.4553     0.0000    24.0000 </r>
       <r>   -15.2752     0.0000    24.0000 </r>
       <r>   -15.0951     0.0000    24.0000 </r>
       <r>   -14.9149     0.0000    24.0000 </r>
       <r>   -14.7348     0.0000    24.0000 </r>
       <r>   -14.5547     0.0000    24.0000 </r>
       <r>   -14.3745     0.0000    24.0000 </r>
       <r>   -14.1944     0.0000    24.0000 </r>
       <r>   -14.0143     0.0000    24.0000 </r>
       <r>   -13.8341     0.0000    24.0000 </r>
       <r>   -13.6540     0.0000    24.0000 </r>
       <r>   -13.4739     0.0000    24.0000 </r>
       <r>   -13.2937     0.0000    24.0000 </r>
       <r>   -13.1136     0.0000    24.0000 </r>
       <r>   -12.9334     0.0000    24.0000 </r>
       <r>   -12.7533     0.0000    24.0000 </r>
       <r>   -12.5732     0.0000    24.0000 </r>
       <r>   -12.3930     0.0000    24.0000 </r>
       <r>   -12.2129     0.0000    24.0000 </r>
       <r>   -12.0328     0.0000    24.0000 </r>
       <r>   -11.8526     0.0000    24.0000 </r>
       <r>   -11.6725     0.0000    24.0000 </r>
       <r>   -11.4924     0.0000    24.0000 </r>
       <r>   -11.3122     0.0000    24.0000 </r>
       <r>   -11.1321     0.0000    24.0000 </r>
       <r>   -10.9519     0.0000    24.0000 </r>
       <r>   -10.7718     0.0000    24.0000 </r>
       <r>   -10.5917     0.0000    24.0000 </r>
       <r>   -10.4115     0.0000    24.0000 </r>
       <r>   -10.2314     0.0000    24.0000 </r>
       <r>   -10.0513     0.0000    24.0000 </r>
       <r>    -9.8711     0.0000    24.0000 </r>
       <r>    -9.6910     0.0000    24.0000 </r>
       <r>    -9.5109     0.0000    24.0000 </r>
       <r>    -9.3307     0.0000    24.0000 </r>
       <r>    -9.1506     0.0000    24.0312 </r>
       <r>    -8.9705     1.0409    24.2188 </r>
       <r>    -8.7903     2.0818    24.5937 </r>
       <r>    -8.6102     1.3878    24.8438 </r>
       <r>    -8.4300     1.0409    25.0312 </r>
       <r>    -8.2499     0.0022    25.7816 </r>
       <r>    -8.0698     0.0000    26.5312 </r>
       <r>    -7.8896     4.8572    27.7812 </r>
       <r>    -7.7095    12.2202    30.1700 </r>
       <r>    -7.5294     3.3290    31.5684 </r>
       <r>    -7.3492     0.0000    32.0000 </r>
       <r>    -7.1691     0.0000    32.0000 </r>
       <r>    -6.9890     0.0000    32.0000 </r>
       <r>    -6.8088     0.0000    32.0000 </r>
       <r>    -6.6287     0.0000    32.0000 </r>
       <r>    -6.4485     0.0000    32.0000 </r>
       <r>    -6.2684     0.0000    32.0000 </r>
       <r>    -6.0883     0.0000    32.0000 </r>
       <r>    -5.9081     0.0000    32.0000 </r>
       <r>    -5.7280     0.0000    32.0000 </r>
       <r>    -5.5479     0.0000    32.0000 </r>
       <r>    -5.3677     0.0000    32.0000 </r>
       <r>    -5.1876     0.0000    32.0000 </r>
       <r>    -5.0075     0.0000    32.0000 </r>
       <r>    -4.8273     0.0000    32.0000 </r>
       <r>    -4.6472     0.0000    32.0000 </r>
       <r>    -4.4671     0.0000    32.0000 </r>
       <r>    -4.2869     0.0000    32.0000 </r>
       <r>    -4.1068     0.0000    32.0000 </r>
       <r>    -3.9266     0.0000    32.0000 </r>
       <r>    -3.7465     0.0000    32.0000 </r>
       <r>    -3.5664     0.0000    32.0000 </r>
       <r>    -3.3862     0.0000    32.0000 </r>
       <r>    -3.2061     0.0000    32.0000 </r>
       <r>    -3.0260     0.0000    32.0000 </r>
       <r>    -2.8458     0.0000    32.0000 </r>
       <r>    -2.6657     0.0000    32.0000 </r>
       <r>    -2.4856     0.0000    32.0000 </r>
       <r>    -2.3054     0.0000    32.0000 </r>
       <r>    -2.1253     0.0000    32.0000 </r>
       <r>    -1.9451     0.0000    32.0000 </r>
       <r>    -1.7650     0.0000    32.0000 </r>
       <r>    -1.5849     0.0000    32.0000 </r>
       <r>    -1.4047     0.6939    32.1250 </r>
       <r>    -1.2246     0.0000    32.1250 </r>
       <r>    -1.0445     0.0003    32.1251 </r>
       <r>    -0.8643     4.1635    33.6250 </r>
       <r>    -0.6842     0.0000    33.7188 </r>
       <r>    -0.5041     2.0818    34.8437 </r>
       <r>    -0.3239     9.7590    36.6017 </r>
       <r>    -0.1438     0.0000    38.0312 </r>
       <r>     0.0363     0.0000    38.0312 </r>
       <r>     0.2165     3.8793    38.7301 </r>
       <r>     0.3966     5.1219    39.7039 </r>
       <r>     0.5768     0.2932    40.3341 </r>
       <r>     0.7569     0.0000    40.5312 </r>
       <r>     0.9370     0.0000    40.7188 </r>
       <r>     1.1172     3.1226    41.2813 </r>
       <r>     1.2973     4.1635    43.1562 </r>
       <r>     1.4774     2.0817    44.6562 </r>
       <r>     1.6576     0.0000    44.6562 </r>
       <r>     1.8377     4.1606    45.5932 </r>
       <r>     2.0178     8.3271    47.4688 </r>
       <r>     2.1980     0.7088    48.7214 </r>
       <r>     2.3781     0.1187    50.1151 </r>
       <r>     2.5582     4.1635    51.4062 </r>
       <r>     2.7384     5.0471    53.0654 </r>
       <r>     2.9185     0.0000    54.6562 </r>
       <r>     3.0987     4.3532    55.4404 </r>
       <r>     3.2788     0.0001    55.5313 </r>
       <r>     3.4589     0.5204    56.0000 </r>
       <r>     3.6391     0.0000    56.0000 </r>
       <r>     3.8192     0.0000    56.0000 </r>
       <r>     3.9993     0.0000    56.0000 </r>
       <r>     4.1795     0.0000    56.0000 </r>
       <r>     4.3596     0.0000    56.0000 </r>
       <r>     4.5397     0.0000    56.0000 </r>
       <r>     4.7199     0.0000    56.0000 </r>
       <r>     4.9000     0.0000    56.0000 </r>
       <r>     5.0802     0.0000    56.0000 </r>
       <r>     5.2603     0.0000    56.0000 </r>
       <r>     5.4404     0.0000    56.0000 </r>
       <r>     5.6206     0.0000    56.0000 </r>
       <r>     5.8007     0.0000    56.0000 </r>
       <r>     5.9808     0.0000    56.0000 </r>
       <r>     6.1610     0.5204    56.0937 </r>
       <r>     6.3411     0.0000    56.0938 </r>
       <r>     6.5212     0.0000    56.0938 </r>
       <r>     6.7014     0.0000    56.0938 </r>
       <r>     6.8815     0.0000    56.2812 </r>
       <r>     7.0616     0.0000    56.3125 </r>
       <r>     7.2418     2.0202    57.0514 </r>
       <r>     7.4219     0.0000    57.0625 </r>
       <r>     7.6021     0.0000    57.0625 </r>
       <r>     7.7822     4.1638    58.6563 </r>
       <r>     7.9623     0.0000    58.7813 </r>
       <r>     8.1425     1.0407    59.1562 </r>
       <r>     8.3226     0.4101    59.4801 </r>
       <r>     8.5027     0.0000    59.5938 </r>
       <r>     8.6829     6.2453    62.4062 </r>
       <r>     8.8630     0.0000    62.7813 </r>
       <r>     9.0431     3.1315    64.2828 </r>
       <r>     9.2233     0.0000    65.5938 </r>
       <r>     9.4034     4.0884    66.3302 </r>
       <r>     9.5836     0.0000    66.3438 </r>
       <r>     9.7637     0.0151    66.3465 </r>
       <r>     9.9438     2.6861    68.3276 </r>
       <r>    10.1240     4.1635    69.7188 </r>
       <r>    10.3041     1.6722    70.0200 </r>
       <r>    10.4842     0.0006    70.7814 </r>
       <r>    10.6644     0.0000    71.1562 </r>
       <r>    10.8445     0.0000    71.1563 </r>
       <r>    11.0246     0.0000    71.5312 </r>
       <r>    11.2048     1.3878    71.7813 </r>
       <r>    11.3849     0.0000    72.0000 </r>
       <r>    11.5650     0.0000    72.0000 </r>
       <r>    11.7452     0.0000    72.0000 </r>
       <r>    11.9253     0.0000    72.0000 </r>
       <r>    12.1055     0.0000    72.0000 </r>
       <r>    12.2856     0.0000    72.0000 </r>
       <r>    12.4657     0.0000    72.0000 </r>
       <r>    12.6459     0.0000    72.0000 </r>
       <r>    12.8260     0.0000    72.0000 </r>
       <r>    13.0061     0.0000    72.0000 </r>
       <r>    13.1863     0.0000    72.0000 </r>
       <r>    13.3664     0.0000    72.0000 </r>
       <r>    13.5465     0.0000    72.0000 </r>
       <r>    13.7267     0.0000    72.0000 </r>
      </set>
     </set>
    </array>
   </total>
  </dos>
 </calculation>
 <structure name="finalpos" >
  <crystal>
   <varray name="basis" >
    <v>       5.21528491       0.00000000       0.00000000 </v>
    <v>       0.00000000       5.21528491       0.00000000 </v>
    <v>       0.00000000       0.00000000       5.21528491 </v>
   </varray>
   <i name="volume">    141.85155994 </i>
   <varray name="rec_basis" >
    <v>       0.19174408       0.00000000       0.00000000 </v>
    <v>       0.00000000       0.19174408       0.00000000 </v>
    <v>       0.00000000       0.00000000       0.19174408 </v>
   </varray>
  </crystal>
  <varray name="positions" >
   <v>       0.00000000       0.00000000       0.00000000 </v>
   <v>       0.00000000       0.50000000       0.50000000 </v>
   <v>       0.50000000       0.00000000       0.50000000 </v>
   <v>       0.50000000       0.50000000       0.00000000 </v>
   <v>       0.50000000       0.00000000       0.00000000 </v>
   <v>       0.50000000       0.50000000       0.50000000 </v>
   <v>       0.00000000       0.00000000       0.50000000 </v>
   <v>       0.00000000       0.50000000       0.00000000 </v>
  </varray>
 </structure>
</modeling>
