   8   8   0   0
  0.1790528E+02  0.5232273E-09  0.5232273E-09  0.5232273E-09  0.5000000E-15
  1.000000000000000E-004
  CAR 
 unknown system                          
     13.64950162    -40.42032870  301      3.42129205      1.00000000
    -40.420  0.0000E+00  0.0000E+00
    -40.240  0.0000E+00  0.0000E+00
    -40.060  0.0000E+00  0.0000E+00
    -39.880  0.0000E+00  0.0000E+00
    -39.699  0.0000E+00  0.0000E+00
    -39.519  0.0000E+00  0.0000E+00
    -39.339  0.0000E+00  0.0000E+00
    -39.159  0.0000E+00  0.0000E+00
    -38.978  0.0000E+00  0.0000E+00
    -38.798  0.0000E+00  0.0000E+00
    -38.618  0.0000E+00  0.0000E+00
    -38.438  0.0000E+00  0.0000E+00
    -38.258  0.0000E+00  0.0000E+00
    -38.077  0.0000E+00  0.0000E+00
    -37.897  0.6658E+01  0.1200E+01
    -37.717  0.0000E+00  0.1200E+01
    -37.537  0.0000E+00  0.1200E+01
    -37.356  0.0000E+00  0.1200E+01
    -37.176  0.0000E+00  0.1200E+01
    -36.996  0.0000E+00  0.1200E+01
    -36.816  0.0000E+00  0.1200E+01
    -36.635  0.0000E+00  0.1200E+01
    -36.455  0.0000E+00  0.1200E+01
    -36.275  0.0000E+00  0.1200E+01
    -36.095  0.0000E+00  0.1200E+01
    -35.915  0.0000E+00  0.1200E+01
    -35.734  0.0000E+00  0.1200E+01
    -35.554  0.0000E+00  0.1200E+01
    -35.374  0.0000E+00  0.1200E+01
    -35.194  0.0000E+00  0.1200E+01
    -35.013  0.0000E+00  0.1200E+01
    -34.833  0.0000E+00  0.1200E+01
    -34.653  0.0000E+00  0.1200E+01
    -34.473  0.0000E+00  0.1200E+01
    -34.292  0.0000E+00  0.1200E+01
    -34.112  0.0000E+00  0.1200E+01
    -33.932  0.0000E+00  0.1200E+01
    -33.752  0.0000E+00  0.1200E+01
    -33.571  0.0000E+00  0.1200E+01
    -33.391  0.0000E+00  0.1200E+01
    -33.211  0.0000E+00  0.1200E+01
    -33.031  0.0000E+00  0.1200E+01
    -32.851  0.0000E+00  0.1200E+01
    -32.670  0.0000E+00  0.1200E+01
    -32.490  0.0000E+00  0.1200E+01
    -32.310  0.0000E+00  0.1200E+01
    -32.130  0.0000E+00  0.1200E+01
    -31.949  0.0000E+00  0.1200E+01
    -31.769  0.0000E+00  0.1200E+01
    -31.589  0.0000E+00  0.1200E+01
    -31.409  0.0000E+00  0.1200E+01
    -31.228  0.0000E+00  0.1200E+01
    -31.048  0.0000E+00  0.1200E+01
    -30.868  0.0000E+00  0.1200E+01
    -30.688  0.0000E+00  0.1200E+01
    -30.508  0.0000E+00  0.1200E+01
    -30.327  0.0000E+00  0.1200E+01
    -30.147  0.0000E+00  0.1200E+01
    -29.967  0.0000E+00  0.1200E+01
    -29.787  0.0000E+00  0.1200E+01
    -29.606  0.0000E+00  0.1200E+01
    -29.426  0.0000E+00  0.1200E+01
    -29.246  0.0000E+00  0.1200E+01
    -29.066  0.0000E+00  0.1200E+01
    -28.885  0.0000E+00  0.1200E+01
    -28.705  0.0000E+00  0.1200E+01
    -28.525  0.0000E+00  0.1200E+01
    -28.345  0.0000E+00  0.1200E+01
    -28.165  0.0000E+00  0.1200E+01
    -27.984  0.0000E+00  0.1200E+01
    -27.804  0.0000E+00  0.1200E+01
    -27.624  0.0000E+00  0.1200E+01
    -27.444  0.0000E+00  0.1200E+01
    -27.263  0.0000E+00  0.1200E+01
    -27.083  0.0000E+00  0.1200E+01
    -26.903  0.0000E+00  0.1200E+01
    -26.723  0.0000E+00  0.1200E+01
    -26.542  0.0000E+00  0.1200E+01
    -26.362  0.0000E+00  0.1200E+01
    -26.182  0.0000E+00  0.1200E+01
    -26.002  0.0000E+00  0.1200E+01
    -25.821  0.0000E+00  0.1200E+01
    -25.641  0.0000E+00  0.1200E+01
    -25.461  0.0000E+00  0.1200E+01
    -25.281  0.0000E+00  0.1200E+01
    -25.101  0.0000E+00  0.1200E+01
    -24.920  0.0000E+00  0.1200E+01
    -24.740  0.0000E+00  0.1200E+01
    -24.560  0.0000E+00  0.1200E+01
    -24.380  0.0000E+00  0.1200E+01
    -24.199  0.0000E+00  0.1200E+01
    -24.019  0.0000E+00  0.1200E+01
    -23.839  0.0000E+00  0.1200E+01
    -23.659  0.0000E+00  0.1200E+01
    -23.478  0.0000E+00  0.1200E+01
    -23.298  0.0000E+00  0.1200E+01
    -23.118  0.0000E+00  0.1200E+01
    -22.938  0.0000E+00  0.1200E+01
    -22.758  0.0000E+00  0.1200E+01
    -22.577  0.0000E+00  0.1200E+01
    -22.397  0.0000E+00  0.1200E+01
    -22.217  0.0000E+00  0.1200E+01
    -22.037  0.0000E+00  0.1200E+01
    -21.856  0.0000E+00  0.1200E+01
    -21.676  0.0000E+00  0.1200E+01
    -21.496  0.0000E+00  0.1200E+01
    -21.316  0.0000E+00  0.1200E+01
    -21.135  0.0000E+00  0.1200E+01
    -20.955  0.0000E+00  0.1200E+01
    -20.775  0.0000E+00  0.1200E+01
    -20.595  0.0000E+00  0.1200E+01
    -20.414  0.0000E+00  0.1200E+01
    -20.234  0.0000E+00  0.1200E+01
    -20.054  0.0000E+00  0.1200E+01
    -19.874  0.0000E+00  0.1200E+01
    -19.694  0.0000E+00  0.1200E+01
    -19.513  0.0000E+00  0.1200E+01
    -19.333  0.0000E+00  0.1200E+01
    -19.153  0.0000E+00  0.1200E+01
    -18.973  0.0000E+00  0.1200E+01
    -18.792  0.0000E+00  0.1200E+01
    -18.612  0.0000E+00  0.1200E+01
    -18.432  0.0000E+00  0.1200E+01
    -18.252  0.0000E+00  0.1200E+01
    -18.071  0.0000E+00  0.1200E+01
    -17.891  0.0000E+00  0.1200E+01
    -17.711  0.0000E+00  0.1200E+01
    -17.531  0.0000E+00  0.1200E+01
    -17.351  0.0000E+00  0.1200E+01
    -17.170  0.0000E+00  0.1200E+01
    -16.990  0.0000E+00  0.1200E+01
    -16.810  0.0000E+00  0.1200E+01
    -16.630  0.0000E+00  0.1200E+01
    -16.449  0.0000E+00  0.1200E+01
    -16.269  0.0000E+00  0.1200E+01
    -16.089  0.0000E+00  0.1200E+01
    -15.909  0.0000E+00  0.1200E+01
    -15.728  0.0000E+00  0.1200E+01
    -15.548  0.0000E+00  0.1200E+01
    -15.368  0.0000E+00  0.1200E+01
    -15.188  0.0000E+00  0.1200E+01
    -15.008  0.0000E+00  0.1200E+01
    -14.827  0.0000E+00  0.1200E+01
    -14.647  0.0000E+00  0.1200E+01
    -14.467  0.0000E+00  0.1200E+01
    -14.287  0.0000E+00  0.1200E+01
    -14.106  0.0000E+00  0.1200E+01
    -13.926  0.0000E+00  0.1200E+01
    -13.746  0.0000E+00  0.1200E+01
    -13.566  0.0000E+00  0.1200E+01
    -13.385  0.0000E+00  0.1200E+01
    -13.205  0.0000E+00  0.1200E+01
    -13.025  0.0000E+00  0.1200E+01
    -12.845  0.0000E+00  0.1200E+01
    -12.664  0.0000E+00  0.1200E+01
    -12.484  0.0000E+00  0.1200E+01
    -12.304  0.0000E+00  0.1200E+01
    -12.124  0.0000E+00  0.1200E+01
    -11.944  0.0000E+00  0.1200E+01
    -11.763  0.0000E+00  0.1200E+01
    -11.583  0.0000E+00  0.1200E+01
    -11.403  0.0000E+00  0.1200E+01
    -11.223  0.0000E+00  0.1200E+01
    -11.042  0.0000E+00  0.1200E+01
    -10.862  0.0000E+00  0.1200E+01
    -10.682  0.0000E+00  0.1200E+01
    -10.502  0.0000E+00  0.1200E+01
    -10.321  0.0000E+00  0.1200E+01
    -10.141  0.0000E+00  0.1200E+01
     -9.961  0.0000E+00  0.1200E+01
     -9.781  0.0000E+00  0.1200E+01
     -9.601  0.0000E+00  0.1200E+01
     -9.420  0.0000E+00  0.1200E+01
     -9.240  0.8657E-02  0.1202E+01
     -9.060  0.3243E-01  0.1207E+01
     -8.880  0.3204E-01  0.1217E+01
     -8.699  0.5716E-01  0.1240E+01
     -8.519  0.5095E-01  0.1251E+01
     -8.339  0.2081E+00  0.1289E+01
     -8.159  0.0000E+00  0.1327E+01
     -7.978  0.3144E+00  0.1383E+01
     -7.798  0.4065E+00  0.1472E+01
     -7.618  0.1874E-01  0.1552E+01
     -7.438  0.0000E+00  0.1600E+01
     -7.257  0.0000E+00  0.1600E+01
     -7.077  0.0000E+00  0.1600E+01
     -6.897  0.0000E+00  0.1600E+01
     -6.717  0.0000E+00  0.1600E+01
     -6.537  0.0000E+00  0.1600E+01
     -6.356  0.0000E+00  0.1600E+01
     -6.176  0.0000E+00  0.1600E+01
     -5.996  0.0000E+00  0.1600E+01
     -5.816  0.0000E+00  0.1600E+01
     -5.635  0.0000E+00  0.1600E+01
     -5.455  0.0000E+00  0.1600E+01
     -5.275  0.0000E+00  0.1600E+01
     -5.095  0.0000E+00  0.1600E+01
     -4.914  0.0000E+00  0.1600E+01
     -4.734  0.0000E+00  0.1600E+01
     -4.554  0.0000E+00  0.1600E+01
     -4.374  0.0000E+00  0.1600E+01
     -4.194  0.0000E+00  0.1600E+01
     -4.013  0.0000E+00  0.1600E+01
     -3.833  0.0000E+00  0.1600E+01
     -3.653  0.0000E+00  0.1600E+01
     -3.473  0.0000E+00  0.1600E+01
     -3.292  0.0000E+00  0.1600E+01
     -3.112  0.0000E+00  0.1600E+01
     -2.932  0.0000E+00  0.1600E+01
     -2.752  0.0000E+00  0.1600E+01
     -2.571  0.0000E+00  0.1600E+01
     -2.391  0.0000E+00  0.1600E+01
     -2.211  0.0000E+00  0.1600E+01
     -2.031  0.0000E+00  0.1600E+01
     -1.851  0.0000E+00  0.1600E+01
     -1.670  0.0000E+00  0.1600E+01
     -1.490  0.1055E-02  0.1600E+01
     -1.310  0.0000E+00  0.1606E+01
     -1.130  0.0000E+00  0.1606E+01
     -0.949  0.1332E+00  0.1668E+01
     -0.769  0.2601E-01  0.1686E+01
     -0.589  0.3220E-01  0.1729E+01
     -0.409  0.2396E+00  0.1785E+01
     -0.228  0.0000E+00  0.1902E+01
     -0.048  0.0000E+00  0.1902E+01
      0.132  0.9349E-01  0.1918E+01
      0.312  0.2081E+00  0.1977E+01
      0.493  0.8129E-06  0.2014E+01
      0.673  0.0000E+00  0.2027E+01
      0.853  0.5202E-01  0.2036E+01
      1.033  0.1557E+00  0.2064E+01
      1.213  0.3909E+00  0.2153E+01
      1.394  0.1035E+00  0.2233E+01
      1.574  0.0000E+00  0.2233E+01
      1.754  0.1240E+00  0.2265E+01
      1.934  0.4161E+00  0.2373E+01
      2.115  0.9356E-04  0.2430E+01
      2.295  0.2726E-02  0.2505E+01
      2.475  0.2081E+00  0.2570E+01
      2.655  0.1416E+00  0.2633E+01
      2.836  0.0000E+00  0.2733E+01
      3.016  0.1762E+00  0.2765E+01
      3.196  0.9213E-06  0.2777E+01
      3.376  0.2601E-01  0.2800E+01
      3.556  0.0000E+00  0.2800E+01
      3.737  0.0000E+00  0.2800E+01
      3.917  0.0000E+00  0.2800E+01
      4.097  0.0000E+00  0.2800E+01
      4.277  0.0000E+00  0.2800E+01
      4.458  0.0000E+00  0.2800E+01
      4.638  0.0000E+00  0.2800E+01
      4.818  0.0000E+00  0.2800E+01
      4.998  0.0000E+00  0.2800E+01
      5.179  0.0000E+00  0.2800E+01
      5.359  0.0000E+00  0.2800E+01
      5.539  0.0000E+00  0.2800E+01
      5.719  0.0000E+00  0.2800E+01
      5.899  0.0000E+00  0.2800E+01
      6.080  0.2601E-01  0.2805E+01
      6.260  0.0000E+00  0.2805E+01
      6.440  0.0000E+00  0.2805E+01
      6.620  0.7797E-04  0.2805E+01
      6.801  0.5879E-02  0.2815E+01
      6.981  0.3646E-10  0.2816E+01
      7.161  0.1040E+00  0.2853E+01
      7.341  0.0000E+00  0.2853E+01
      7.522  0.8316E-10  0.2853E+01
      7.702  0.2152E+00  0.2934E+01
      7.882  0.1128E-13  0.2939E+01
      8.062  0.1323E-07  0.2958E+01
      8.243  0.5202E-01  0.2980E+01
      8.423  0.8834E-06  0.2980E+01
      8.603  0.0000E+00  0.3120E+01
      8.783  0.1096E+00  0.3140E+01
      8.963  0.1118E+00  0.3206E+01
      9.144  0.0000E+00  0.3280E+01
      9.324  0.2081E+00  0.3317E+01
      9.504  0.0000E+00  0.3317E+01
      9.684  0.8160E-03  0.3317E+01
      9.865  0.2081E+00  0.3430E+01
     10.045  0.0000E+00  0.3486E+01
     10.225  0.3767E-01  0.3499E+01
     10.405  0.3556E-03  0.3539E+01
     10.586  0.0000E+00  0.3558E+01
     10.766  0.1040E+00  0.3577E+01
     10.946  0.0000E+00  0.3577E+01
     11.126  0.6949E-01  0.3589E+01
     11.306  0.0000E+00  0.3600E+01
     11.487  0.0000E+00  0.3600E+01
     11.667  0.0000E+00  0.3600E+01
     11.847  0.0000E+00  0.3600E+01
     12.027  0.0000E+00  0.3600E+01
     12.208  0.0000E+00  0.3600E+01
     12.388  0.0000E+00  0.3600E+01
     12.568  0.0000E+00  0.3600E+01
     12.748  0.0000E+00  0.3600E+01
     12.929  0.0000E+00  0.3600E+01
     13.109  0.0000E+00  0.3600E+01
     13.289  0.0000E+00  0.3600E+01
     13.469  0.0000E+00  0.3600E+01
     13.650  0.0000E+00  0.3600E+01
