    8    8   20    1
  0.1790528E+02  0.5232273E-09  0.5232273E-09  0.5232273E-09  0.5000000E-15
  1.000000000000000E-004
  CAR 
 unknown system                          
     56     10     36
 
  0.0000000E+00  0.0000000E+00  0.0000000E+00  0.1562500E-01
    1      -37.961788
    2      -37.961788
    3      -37.961788
    4      -37.958516
    5      -37.958516
    6      -37.958516
    7      -37.958516
    8      -37.958516
    9      -37.958516
   10      -37.955845
   11      -37.955845
   12      -37.955845
   13       -9.261073
   14       -7.611863
   15       -7.611863
   16       -7.611863
   17       -0.834756
   18       -0.834756
   19       -0.834756
   20        1.662789
   21        1.662789
   22        1.662789
   23        1.662789
   24        1.662789
   25        1.662789
   26        3.330499
   27        3.330499
   28        3.330499
   29        6.005664
   30        6.005664
   31        6.005664
   32        6.797385
   33        7.620237
   34        7.620237
   35        7.620237
   36       11.191782
 
  0.2500000E+00  0.0000000E+00  0.0000000E+00  0.9375000E-01
    1      -37.961371
    2      -37.961371
    3      -37.961152
    4      -37.959046
    5      -37.959046
    6      -37.958551
    7      -37.958551
    8      -37.958185
    9      -37.958184
   10      -37.957009
   11      -37.956325
   12      -37.956324
   13       -9.062052
   14       -7.910798
   15       -7.588719
   16       -7.588719
   17       -0.585370
   18       -0.585370
   19       -0.385336
   20        1.095291
   21        1.095291
   22        1.286780
   23        1.286780
   24        1.852426
   25        1.852426
   26        2.306306
   27        3.008674
   28        3.008674
   29        6.641410
   30        7.024488
   31        7.024488
   32        7.933281
   33        7.958819
   34        8.711100
   35        8.711100
   36       10.220870
 
  0.5000000E+00  0.0000000E+00  0.0000000E+00  0.4687500E-01
    1      -37.960239
    2      -37.960239
    3      -37.960239
    4      -37.960239
    5      -37.959119
    6      -37.959119
    7      -37.958695
    8      -37.958695
    9      -37.957263
   10      -37.957263
   11      -37.957263
   12      -37.957263
   13       -8.533591
   14       -8.533591
   15       -7.565195
   16       -7.565195
   17        0.123036
   18        0.123036
   19        0.123036
   20        0.123036
   21        0.774015
   22        0.774015
   23        0.981799
   24        0.981799
   25        2.369284
   26        2.369284
   27        2.369284
   28        2.369284
   29        8.201671
   30        8.201671
   31        8.479916
   32        8.479916
   33        8.847913
   34        8.847913
   35       11.145917
   36       11.146192
 
  0.2500000E+00  0.2500000E+00  0.0000000E+00  0.1875000E+00
    1      -37.961035
    2      -37.961035
    3      -37.960885
    4      -37.959852
    5      -37.958592
    6      -37.958592
    7      -37.958100
    8      -37.957967
    9      -37.957967
   10      -37.957917
   11      -37.956698
   12      -37.956128
   13       -8.876048
   14       -7.840970
   15       -7.840970
   16       -7.610054
   17       -0.408541
   18       -0.408541
   19       -0.339441
   20        0.161978
   21        1.305765
   22        1.305765
   23        1.375573
   24        1.752421
   25        1.752421
   26        1.981757
   27        2.624135
   28        3.226350
   29        7.131288
   30        7.565040
   31        7.565040
   32        8.483509
   33        8.976218
   34        8.976218
   35        9.909997
   36       10.424437
 
  0.5000000E+00  0.2500000E+00  0.0000000E+00  0.1875000E+00
    1      -37.960669
    2      -37.960669
    3      -37.959891
    4      -37.959891
    5      -37.959804
    6      -37.959804
    7      -37.957818
    8      -37.957818
    9      -37.957709
   10      -37.957709
   11      -37.956842
   12      -37.956842
   13       -8.390852
   14       -8.390852
   15       -7.700942
   16       -7.700942
   17       -0.357282
   18       -0.357282
   19        0.260125
   20        0.260125
   21        0.357106
   22        0.357106
   23        1.886122
   24        1.886122
   25        1.891134
   26        1.891134
   27        2.661755
   28        2.661755
   29        8.469922
   30        8.469922
   31        8.983807
   32        8.983807
   33        9.704595
   34        9.704595
   35       10.256113
   36       10.259693
 
  0.5000000E+00  0.5000000E+00  0.0000000E+00  0.4687500E-01
    1      -37.960783
    2      -37.960783
    3      -37.960783
    4      -37.960783
    5      -37.958757
    6      -37.958757
    7      -37.958757
    8      -37.958757
    9      -37.956901
   10      -37.956901
   11      -37.956901
   12      -37.956901
   13       -8.043179
   14       -8.043179
   15       -8.043179
   16       -8.043179
   17       -0.356996
   18       -0.356996
   19       -0.356996
   20       -0.356996
   21        1.013886
   22        1.013886
   23        1.013886
   24        1.013886
   25        2.708867
   26        2.708867
   27        2.708867
   28        2.708867
   29        8.885496
   30        8.885496
   31        8.885496
   32        8.885496
   33       10.721461
   34       10.721543
   35       10.721736
   36       10.722133
 
  0.2500000E+00  0.2500000E+00  0.2500000E+00  0.1250000E+00
    1      -37.961351
    2      -37.961351
    3      -37.961351
    4      -37.959249
    5      -37.958560
    6      -37.958560
    7      -37.958560
    8      -37.957707
    9      -37.957707
   10      -37.957707
   11      -37.956400
   12      -37.956400
   13       -8.705949
   14       -7.809925
   15       -7.809925
   16       -7.809925
   17       -0.691044
   18       -0.691044
   19       -0.691044
   20        0.522415
   21        1.136565
   22        1.136565
   23        1.136565
   24        2.138082
   25        2.138082
   26        2.138082
   27        3.013263
   28        3.013263
   29        7.625411
   30        7.625411
   31        7.625411
   32        8.098192
   33        9.946619
   34        9.946619
   35        9.946619
   36       11.052524
 
  0.5000000E+00  0.2500000E+00  0.2500000E+00  0.1875000E+00
    1      -37.961578
    2      -37.961578
    3      -37.960960
    4      -37.960960
    5      -37.958522
    6      -37.958522
    7      -37.957480
    8      -37.957480
    9      -37.957148
   10      -37.957148
   11      -37.957086
   12      -37.957086
   13       -8.273457
   14       -8.273457
   15       -7.778144
   16       -7.778144
   17       -0.951894
   18       -0.951894
   19       -0.411534
   20       -0.411534
   21        1.205183
   22        1.205183
   23        2.190916
   24        2.190916
   25        2.424064
   26        2.424064
   27        2.547655
   28        2.547655
   29        8.454235
   30        8.454235
   31        8.796887
   32        8.796887
   33        9.283621
   34        9.283621
   35        9.835579
   36        9.835579
 
  0.5000000E+00  0.5000000E+00  0.2500000E+00  0.9375000E-01
    1      -37.961918
    2      -37.961918
    3      -37.961918
    4      -37.961918
    5      -37.957698
    6      -37.957698
    7      -37.957698
    8      -37.957698
    9      -37.956967
   10      -37.956967
   11      -37.956967
   12      -37.956967
   13       -8.006082
   14       -8.006082
   15       -8.006082
   16       -8.006082
   17       -1.055777
   18       -1.055777
   19       -1.055777
   20       -1.055777
   21        1.983558
   22        1.983558
   23        1.983558
   24        1.983558
   25        2.728512
   26        2.728512
   27        2.728512
   28        2.728512
   29        8.509583
   30        8.509583
   31        8.509583
   32        8.509583
   33        9.704972
   34        9.704972
   35        9.704972
   36        9.704972
 
  0.5000000E+00  0.5000000E+00  0.5000000E+00  0.1562500E-01
    1      -37.962609
    2      -37.962609
    3      -37.962609
    4      -37.962609
    5      -37.956907
    6      -37.956907
    7      -37.956907
    8      -37.956907
    9      -37.956907
   10      -37.956907
   11      -37.956907
   12      -37.956907
   13       -7.967808
   14       -7.967808
   15       -7.967808
   16       -7.967808
   17       -1.476795
   18       -1.476795
   19       -1.476795
   20       -1.476795
   21        2.748569
   22        2.748569
   23        2.748569
   24        2.748569
   25        2.748569
   26        2.748569
   27        2.748569
   28        2.748569
   29        7.707655
   30        7.707655
   31        7.707655
   32        7.707655
   33       10.140179
   34       10.140179
   35       10.140179
   36       10.140179
