 vasp.5.3.5 31Mar14 (build Nov 07 2014 11:36:17) complex                        
  
 executed on             LinuxIFC date 2015.10.15  01:06:01
 running on   20 total cores
 distrk:  each k-point on   20 cores,    1 groups
 distr:  one band on NCORES_PER_BAND=   5 cores,    4 groups


--------------------------------------------------------------------------------------------------------


 INCAR:
 POTCAR:    PAW_PBE Mg_pv 13Apr2007               
 POTCAR:    PAW_PBE S 06Sep2000                   
 POTCAR:    PAW_PBE Mg_pv 13Apr2007               
   VRHFIN =Mg: p6s2                                                             
   LEXCH  = PE                                                                  
   EATOM  =  1056.7344 eV,   77.6678 Ry                                         
                                                                                
   TITEL  = PAW_PBE Mg_pv 13Apr2007                                             
   LULTRA =        F    use ultrasoft PP ?                                      
   IUNSCR =        1    unscreen: 0-lin 1-nonlin 2-no                           
   RPACOR =    1.500    partial core radius                                     
   POMASS =   24.305; ZVAL   =    8.000    mass and valenz                      
   RCORE  =    2.000    outmost cutoff radius                                   
   RWIGS  =    2.000; RWIGS  =    1.058    wigner-seitz radius (au A)           
   ENMAX  =  403.929; ENMIN  =  302.947 eV                                      
   RCLOC  =    1.506    cutoff for local pot                                    
   LCOR   =        T    correct aug charges                                     
   LPAW   =        T    paw PP                                                  
   EAUG   =  758.780                                                            
   DEXC   =    0.000                                                            
   RMAX   =    2.045    core radius for proj-oper                               
   RAUG   =    1.300    factor for augmentation sphere                          
   RDEP   =    2.025    radius for radial grids                                 
   RDEPT  =    1.557    core radius for aug-charge                              
                                                                                
   Atomic configuration                                                         
    5 entries                                                                   
     n  l   j            E        occ.                                          
     1  0  0.50     -1259.6230   2.0000                                         
     2  0  0.50       -79.8442   2.0000                                         
     2  1  1.50       -46.6121   6.0000                                         
     3  0  0.50        -4.7055   2.0000                                         
     3  2  1.50        -1.3606   0.0000                                         
   Description                                                                  
     l       E           TYP  RCUT    TYP  RCUT                                 
     1    -46.6121073     23  1.600                                             
     1      2.7211652     23  1.600                                             
     0     -4.7054661     23  2.000                                             
     0     61.2262170     23  2.000                                             
     2     -1.3605826     23  2.000                                             
  local pseudopotential read in
  partial core-charges read in
  partial kinetic energy density read in
  atomic valenz-charges read in
  non local Contribution for L=           1  read in
    real space projection operators read in
  non local Contribution for L=           1  read in
    real space projection operators read in
  non local Contribution for L=           0  read in
    real space projection operators read in
  non local Contribution for L=           0  read in
    real space projection operators read in
  non local Contribution for L=           2  read in
    real space projection operators read in
    PAW grid and wavefunctions read in
 
   number of l-projection  operators is LMAX  =           5
   number of lm-projection operators is LMMAX =          13
 
 POTCAR:    PAW_PBE S 06Sep2000                   
   VRHFIN =S : s2p4                                                             
   LEXCH  = PE                                                                  
   EATOM  =   276.8230 eV,   20.3459 Ry                                         
                                                                                
   TITEL  = PAW_PBE S 06Sep2000                                                 
   LULTRA =        F    use ultrasoft PP ?                                      
   IUNSCR =        1    unscreen: 0-lin 1-nonlin 2-no                           
   RPACOR =    1.500    partial core radius                                     
   POMASS =   32.066; ZVAL   =    6.000    mass and valenz                      
   RCORE  =    1.900    outmost cutoff radius                                   
   RWIGS  =    2.200; RWIGS  =    1.164    wigner-seitz radius (au A)           
   ENMAX  =  258.689; ENMIN  =  194.016 eV                                      
   ICORE  =        2    local potential                                         
   LCOR   =        T    correct aug charges                                     
   LPAW   =        T    paw PP                                                  
   EAUG   =  335.092                                                            
   DEXC   =    0.000                                                            
   RMAX   =    1.942    core radius for proj-oper                               
   RAUG   =    1.300    factor for augmentation sphere                          
   RDEP   =    1.954    radius for radial grids                                 
   RDEPT  =    1.744    core radius for aug-charge                              
                                                                                
   Atomic configuration                                                         
    6 entries                                                                   
     n  l   j            E        occ.                                          
     1  0  0.50     -2405.8406   2.0000                                         
     2  0  0.50      -211.7007   2.0000                                         
     2  1  1.50      -156.4958   6.0000                                         
     3  0  0.50       -17.2562   2.0000                                         
     3  1  0.50        -7.0085   4.0000                                         
     3  2  1.50        -6.8029   0.0000                                         
   Description                                                                  
     l       E           TYP  RCUT    TYP  RCUT                                 
     0    -17.2561641     23  1.900                                             
     0    -15.8743224     23  1.900                                             
     1     -7.0085400     23  1.900                                             
     1     -2.7779785     23  1.900                                             
     2     -6.8029130     23  1.900                                             
  local pseudopotential read in
  partial core-charges read in
  partial kinetic energy density read in
  atomic valenz-charges read in
  non local Contribution for L=           0  read in
    real space projection operators read in
  non local Contribution for L=           0  read in
    real space projection operators read in
  non local Contribution for L=           1  read in
    real space projection operators read in
  non local Contribution for L=           1  read in
    real space projection operators read in
    PAW grid and wavefunctions read in
 
   number of l-projection  operators is LMAX  =           4
   number of lm-projection operators is LMMAX =           8
 

 ----------------------------------------------------------------------------- 
|                                                                             |
|  ADVICE TO THIS USER RUNNING 'VASP/VAMP'   (HEAR YOUR MASTER'S VOICE ...):  |
|                                                                             |
|      You enforced a specific xc-type in the INCAR file,                     |
|      a different type was found on the POTCAR file                          |
|          I HOPE YOU KNOW, WHAT YOU ARE  DOING                               |
|                                                                             |
 ----------------------------------------------------------------------------- 

  PAW_PBE Mg_pv 13Apr2007               :
 energy of atom  1       EATOM=-1056.7344
 kinetic energy error for atom=    0.0336 (will be added to EATOM!!)
  PAW_PBE S 06Sep2000                   :
 energy of atom  2       EATOM= -276.8230
 kinetic energy error for atom=    0.0015 (will be added to EATOM!!)
 
 
 POSCAR:  Mg S                                   
  positions in direct lattice
  No initial velocities read in
 exchange correlation table for  LEXCH =       14
   RHO(1)=    0.500       N(1)  =     2000
   RHO(2)=  100.500       N(2)  =     4000
 


--------------------------------------------------------------------------------------------------------


 ion  position               nearest neighbor table
   1  0.000  0.000  0.000-   5 2.62   7 2.62   8 2.62   7 2.62   8 2.62   5 2.62
   2  0.000  0.500  0.500-   6 2.62   7 2.62   8 2.62   8 2.62   7 2.62   6 2.62
   3  0.500  0.000  0.500-   5 2.62   6 2.62   7 2.62   5 2.62   6 2.62   7 2.62
   4  0.500  0.500  0.000-   5 2.62   6 2.62   8 2.62   6 2.62   5 2.62   8 2.62
   5  0.500  0.000  0.000-   1 2.62   3 2.62   4 2.62   3 2.62   4 2.62   1 2.62
   6  0.500  0.500  0.500-   2 2.62   3 2.62   4 2.62   4 2.62   3 2.62   2 2.62
   7  0.000  0.000  0.500-   1 2.62   2 2.62   3 2.62   1 2.62   2 2.62   3 2.62
   8  0.000  0.500  0.000-   1 2.62   2 2.62   4 2.62   2 2.62   1 2.62   4 2.62
 
  LATTYP: Found a simple cubic cell.
 ALAT       =     5.2322729270
  
  Lattice vectors:
  
 A1 = (   5.2322729270,   0.0000000000,   0.0000000000)
 A2 = (   0.0000000000,   5.2322729270,   0.0000000000)
 A3 = (   0.0000000000,   0.0000000000,   5.2322729270)


Analysis of symmetry for initial positions (statically):
=====================================================================
 Subroutine PRICEL returns following result:
 
  LATTYP: Found a face centered cubic cell.
 ALAT       =     5.2322729270
  
  Lattice vectors:
  
 A1 = (   2.6161364635,   2.6161364635,   0.0000000000)
 A2 = (   2.6161364635,   0.0000000000,  -2.6161364635)
 A3 = (   0.0000000000,   2.6161364635,  -2.6161364635)
 
   4 primitive cells build up your supercell.
 

 Routine SETGRP: Setting up the symmetry group for a 
 simple cubic supercell.


 Subroutine GETGRP returns: Found 48 space group operations
 (whereof 48 operations were pure point group operations)
 out of a pool of 48 trial point group operations.


The static configuration has the point symmetry O_h .


Analysis of symmetry for dynamics (positions and initial velocities):
=====================================================================
 Subroutine PRICEL returns following result:
 
  LATTYP: Found a face centered cubic cell.
 ALAT       =     5.2322729270
  
  Lattice vectors:
  
 A1 = (   2.6161364635,   2.6161364635,   0.0000000000)
 A2 = (   2.6161364635,   0.0000000000,  -2.6161364635)
 A3 = (   0.0000000000,   2.6161364635,  -2.6161364635)
 
   4 primitive cells build up your supercell.
 

 Routine SETGRP: Setting up the symmetry group for a 
 simple cubic supercell.


 Subroutine GETGRP returns: Found 48 space group operations
 (whereof 48 operations were pure point group operations)
 out of a pool of 48 trial point group operations.


The dynamic configuration has the point symmetry O_h .
 
 
 KPOINTS: Automatic mesh                          

Automatic generation of k-mesh.
Space group operators:
 irot       det(A)        alpha          n_x          n_y          n_z        tau_x        tau_y        tau_z
    1     1.000000     0.000000     1.000000     0.000000     0.000000     0.000000     0.000000     0.000000
    2    -1.000000     0.000000     1.000000     0.000000     0.000000     0.000000     0.000000     0.000000
    3     1.000000   120.000000    -0.577350    -0.577350    -0.577350     0.000000     0.000000     0.000000
    4    -1.000000   120.000000    -0.577350    -0.577350    -0.577350     0.000000     0.000000     0.000000
    5     1.000000   120.000000     0.577350     0.577350     0.577350     0.000000     0.000000     0.000000
    6    -1.000000   120.000000     0.577350     0.577350     0.577350     0.000000     0.000000     0.000000
    7     1.000000    90.000000     0.000000     0.000000    -1.000000     0.000000     0.000000     0.000000
    8    -1.000000    90.000000     0.000000     0.000000    -1.000000     0.000000     0.000000     0.000000
    9     1.000000   180.000000     0.000000     0.707107     0.707107     0.000000     0.000000     0.000000
   10    -1.000000   180.000000     0.000000     0.707107     0.707107     0.000000     0.000000     0.000000
   11     1.000000    90.000000     0.000000     1.000000     0.000000     0.000000     0.000000     0.000000
   12    -1.000000    90.000000     0.000000     1.000000     0.000000     0.000000     0.000000     0.000000
   13     1.000000   180.000000     0.000000     0.000000     1.000000     0.000000     0.000000     0.000000
   14    -1.000000   180.000000     0.000000     0.000000     1.000000     0.000000     0.000000     0.000000
   15     1.000000   120.000000    -0.577350     0.577350     0.577350     0.000000     0.000000     0.000000
   16    -1.000000   120.000000    -0.577350     0.577350     0.577350     0.000000     0.000000     0.000000
   17     1.000000   120.000000    -0.577350     0.577350    -0.577350     0.000000     0.000000     0.000000
   18    -1.000000   120.000000    -0.577350     0.577350    -0.577350     0.000000     0.000000     0.000000
   19     1.000000    90.000000     0.000000     0.000000     1.000000     0.000000     0.000000     0.000000
   20    -1.000000    90.000000     0.000000     0.000000     1.000000     0.000000     0.000000     0.000000
   21     1.000000    90.000000    -1.000000     0.000000     0.000000     0.000000     0.000000     0.000000
   22    -1.000000    90.000000    -1.000000     0.000000     0.000000     0.000000     0.000000     0.000000
   23     1.000000   180.000000     0.707107     0.000000     0.707107     0.000000     0.000000     0.000000
   24    -1.000000   180.000000     0.707107     0.000000     0.707107     0.000000     0.000000     0.000000
   25     1.000000   120.000000     0.577350    -0.577350     0.577350     0.000000     0.000000     0.000000
   26    -1.000000   120.000000     0.577350    -0.577350     0.577350     0.000000     0.000000     0.000000
   27     1.000000   120.000000    -0.577350    -0.577350     0.577350     0.000000     0.000000     0.000000
   28    -1.000000   120.000000    -0.577350    -0.577350     0.577350     0.000000     0.000000     0.000000
   29     1.000000   180.000000     1.000000     0.000000     0.000000     0.000000     0.000000     0.000000
   30    -1.000000   180.000000     1.000000     0.000000     0.000000     0.000000     0.000000     0.000000
   31     1.000000    90.000000     0.000000    -1.000000     0.000000     0.000000     0.000000     0.000000
   32    -1.000000    90.000000     0.000000    -1.000000     0.000000     0.000000     0.000000     0.000000
   33     1.000000   180.000000     0.707107     0.707107     0.000000     0.000000     0.000000     0.000000
   34    -1.000000   180.000000     0.707107     0.707107     0.000000     0.000000     0.000000     0.000000
   35     1.000000    90.000000     1.000000     0.000000     0.000000     0.000000     0.000000     0.000000
   36    -1.000000    90.000000     1.000000     0.000000     0.000000     0.000000     0.000000     0.000000
   37     1.000000   120.000000     0.577350    -0.577350    -0.577350     0.000000     0.000000     0.000000
   38    -1.000000   120.000000     0.577350    -0.577350    -0.577350     0.000000     0.000000     0.000000
   39     1.000000   180.000000     0.000000     1.000000     0.000000     0.000000     0.000000     0.000000
   40    -1.000000   180.000000     0.000000     1.000000     0.000000     0.000000     0.000000     0.000000
   41     1.000000   120.000000     0.577350     0.577350    -0.577350     0.000000     0.000000     0.000000
   42    -1.000000   120.000000     0.577350     0.577350    -0.577350     0.000000     0.000000     0.000000
   43     1.000000   180.000000     0.000000    -0.707107     0.707107     0.000000     0.000000     0.000000
   44    -1.000000   180.000000     0.000000    -0.707107     0.707107     0.000000     0.000000     0.000000
   45     1.000000   180.000000     0.707107    -0.707107     0.000000     0.000000     0.000000     0.000000
   46    -1.000000   180.000000     0.707107    -0.707107     0.000000     0.000000     0.000000     0.000000
   47     1.000000   180.000000     0.707107     0.000000    -0.707107     0.000000     0.000000     0.000000
   48    -1.000000   180.000000     0.707107     0.000000    -0.707107     0.000000     0.000000     0.000000
 
 Subroutine IBZKPT returns following result:
 ===========================================
 
 Found     10 irreducible k-points:
 
 Following reciprocal coordinates:
            Coordinates               Weight
  0.000000  0.000000  0.000000      1.000000
  0.250000  0.000000  0.000000      6.000000
  0.500000  0.000000  0.000000      3.000000
  0.250000  0.250000  0.000000     12.000000
  0.500000  0.250000  0.000000     12.000000
  0.500000  0.500000  0.000000      3.000000
  0.250000  0.250000  0.250000      8.000000
  0.500000  0.250000  0.250000     12.000000
  0.500000  0.500000  0.250000      6.000000
  0.500000  0.500000  0.500000      1.000000
 
 Following cartesian coordinates:
            Coordinates               Weight
  0.000000  0.000000  0.000000      1.000000
  0.047780  0.000000  0.000000      6.000000
  0.095561  0.000000  0.000000      3.000000
  0.047780  0.047780  0.000000     12.000000
  0.095561  0.047780  0.000000     12.000000
  0.095561  0.095561  0.000000      3.000000
  0.047780  0.047780  0.047780      8.000000
  0.095561  0.047780  0.047780     12.000000
  0.095561  0.095561  0.047780      6.000000
  0.095561  0.095561  0.095561      1.000000
 


--------------------------------------------------------------------------------------------------------




 Dimension of arrays:
   k-points           NKPTS =     10   k-points in BZ     NKDIM =     10   number of bands    NBANDS=     36
   number of dos      NEDOS =    301   number of ions     NIONS =      8
   non local maximal  LDIM  =      5   non local SUM 2l+1 LMDIM =     13
   total plane-waves  NPLWV =  64000
   max r-space proj   IRMAX =      1   max aug-charges    IRDMAX= 112796
   dimension x,y,z NGX =    40 NGY =   40 NGZ =   40
   dimension x,y,z NGXF=    80 NGYF=   80 NGZF=   80
   support grid    NGXF=   160 NGYF=  160 NGZF=  160
   ions per type =               4   4
 NGX,Y,Z   is equivalent  to a cutoff of  12.71, 12.71, 12.71 a.u.
 NGXF,Y,Z  is equivalent  to a cutoff of  25.42, 25.42, 25.42 a.u.


 I would recommend the setting:
   dimension x,y,z NGX =    39 NGY =   39 NGZ =   39
 SYSTEM =  unknown system                          
 POSCAR =   Mg S                                   

 Startparameter for this run:
   NWRITE =      2    write-flag & timer
   PREC   = accura    normal or accurate (medium, high low for compatibility)
   ISTART =      0    job   : 0-new  1-cont  2-samecut
   ICHARG =      2    charge: 1-file 2-atom 10-const
   ISPIN  =      1    spin polarized calculation?
   LNONCOLLINEAR =      F non collinear calculations
   LSORBIT =      F    spin-orbit coupling
   INIWAV =      1    electr: 0-lowe 1-rand  2-diag
   LASPH  =      F    aspherical Exc in radial PAW
   METAGGA=      F    non-selfconsistent MetaGGA calc.

 Electronic Relaxation 1
   ENCUT  =  525.1 eV  38.59 Ry    6.21 a.u.   9.78  9.78  9.78*2*pi/ulx,y,z
   ENINI  =  525.1     initial cutoff
   ENAUG  =  758.8 eV  augmentation charge cutoff
   NELM   =     60;   NELMIN=  5; NELMDL= -5     # of ELM steps 
   EDIFF  = 0.1E-07   stopping-criterion for ELM
   LREAL  =      F    real-space projection
   NLSPLINE    = F    spline interpolate recip. space projectors
   LCOMPAT=      F    compatible to vasp.4.4
   GGA_COMPAT  = T    GGA compatible to vasp.4.4-vasp.4.6
   LMAXPAW     = -100 max onsite density
   LMAXMIX     =    2 max onsite mixed and CHGCAR
   VOSKOWN=      0    Vosko Wilk Nusair interpolation
   ROPT   =    0.00000   0.00000
 Ionic relaxation
   EDIFFG = -.1E-07   stopping-criterion for IOM
   NSW    =     20    number of steps for IOM
   NBLOCK =      1;   KBLOCK =     20    inner block; outer block 
   IBRION =      2    ionic relax: 0-MD 1-quasi-New 2-CG
   NFREE  =      1    steps in history (QN), initial steepest desc. (CG)
   ISIF   =      4    stress and relaxation
   IWAVPR =     11    prediction:  0-non 1-charg 2-wave 3-comb
   ISYM   =      2    0-nonsym 1-usesym 2-fastsym
   LCORR  =      T    Harris-Foulkes like correction to forces

   POTIM  = 0.5000    time-step for ionic-motion
   TEIN   =    0.0    initial temperature
   TEBEG  =    0.0;   TEEND  =   0.0 temperature during run
   SMASS  =  -3.00    Nose mass-parameter (am)
   estimated Nose-frequenzy (Omega)   =  0.10E-29 period in steps =****** mass=  -0.626E-27a.u.
   SCALEE = 1.0000    scale energy and forces
   NPACO  =    256;   APACO  = 16.0  distance and # of slots for P.C.
   PSTRESS=    0.0 pullay stress

  Mass of Ions in am
   POMASS =  24.30 32.07
  Ionic Valenz
   ZVAL   =   8.00  6.00
  Atomic Wigner-Seitz radii
   RWIGS  =  -1.00 -1.00
  virtual crystal weights 
   VCA    =   1.00  1.00
   NELECT =      56.0000    total number of electrons
   NUPDOWN=      -1.0000    fix difference up-down

 DOS related values:
   EMIN   =  10.00;   EMAX   =-10.00  energy-range for DOS
   EFERMI =   0.00
   ISMEAR =     0;   SIGMA  =   0.01  broadening in eV -4-tet -1-fermi 0-gaus

 Electronic relaxation 2 (details)
   IALGO  =     38    algorithm
   LDIAG  =      T    sub-space diagonalisation (order eigenvalues)
   LSUBROT=      F    optimize rotation matrix (better conditioning)
   TURBO    =      0    0=normal 1=particle mesh
   IRESTART =      0    0=no restart 2=restart with 2 vectors
   NREBOOT  =      0    no. of reboots
   NMIN     =      0    reboot dimension
   EREF     =   0.00    reference energy to select bands
   IMIX   =      4    mixing-type and parameters
     AMIX     =   0.40;   BMIX     =  1.00
     AMIX_MAG =   1.60;   BMIX_MAG =  1.00
     AMIN     =   0.10
     WC   =   100.;   INIMIX=   1;  MIXPRE=   1;  MAXMIX= -45

 Intra band minimization:
   WEIMIN = 0.0010     energy-eigenvalue tresh-hold
   EBREAK =  0.69E-11  absolut break condition
   DEPER  =   0.30     relativ break condition  

   TIME   =   0.40     timestep for ELM

  volume/ion in A,a.u.               =      17.91       120.83
  Fermi-wavevector in a.u.,A,eV,Ry     =   1.197054  2.262104 19.496313  1.432939
  Thomas-Fermi vector in A             =   2.332979
 
 Write flags
   LWAVE  =      F    write WAVECAR
   LCHARG =      F    write CHGCAR
   LVTOT  =      F    write LOCPOT, total local potential
   LVHAR  =      F    write LOCPOT, Hartree potential only
   LELF   =      F    write electronic localiz. function (ELF)
   LORBIT =      0    0 simple, 1 ext, 2 COOP (PROOUT)


 Dipole corrections
   LMONO  =      F    monopole corrections only (constant potential shift)
   LDIPOL =      F    correct potential (dipole corrections)
   IDIPOL =      0    1-x, 2-y, 3-z, 4-all directions 
   EPSILON=  1.0000000 bulk dielectric constant

 Exchange correlation treatment:
   GGA     =    PS    GGA type
   LEXCH   =    14    internal setting for exchange type
   VOSKOWN=      0    Vosko Wilk Nusair interpolation
   LHFCALC =     F    Hartree Fock is set to
   LHFONE  =     F    Hartree Fock one center treatment
   AEXX    =    0.0000 exact exchange contribution

 Linear response parameters
   LEPSILON=     F    determine dielectric tensor
   LRPA    =     F    only Hartree local field effects (RPA)
   LNABLA  =     F    use nabla operator in PAW spheres
   LVEL    =     F    velocity operator in full k-point grid
   LINTERFAST=   F  fast interpolation
   KINTER  =     0    interpolate to denser k-point grid
   CSHIFT  =0.1000    complex shift for real part using Kramers Kronig
   OMEGAMAX=  -1.0    maximum frequency
   DEG_THRESHOLD= 0.2000000E-02 threshold for treating states as degnerate
   RTIME   =    0.100 relaxation time in fs

 Orbital magnetization related:
   ORBITALMAG=     F  switch on orbital magnetization
   LCHIMAG   =     F  perturbation theory with respect to B field
   DQ        =  0.001000  dq finite difference perturbation B field



--------------------------------------------------------------------------------------------------------


 conjugate gradient relaxation of ions
 charge density and potential will be updated during run
 non-spin polarized calculation
 Variant of blocked Davidson
 Davidson routine will perform the subspace rotation
 perform sub-space diagonalisation
    after iterative eigenvector-optimisation
 modified Broyden-mixing scheme, WC =      100.0
 initial mixing is a Kerker type mixing with AMIX =  0.4000 and BMIX =      1.0000
 Hartree-type preconditioning will be used
 using additional bands            8
 reciprocal scheme for non local part
 use partial core corrections
 calculate Harris-corrections to forces 
   (improved forces if not selfconsistent)
 use gradient corrections 
 use of overlap-Matrix (Vanderbilt PP)
 Gauss-broadening in eV      SIGMA  =   0.01


--------------------------------------------------------------------------------------------------------


  energy-cutoff  :      525.11
  volume of cell :      143.24
      direct lattice vectors                 reciprocal lattice vectors
     5.232272927  0.000000000  0.000000000     0.191121529  0.000000000  0.000000000
     0.000000000  5.232272927  0.000000000     0.000000000  0.191121529  0.000000000
     0.000000000  0.000000000  5.232272927     0.000000000  0.000000000  0.191121529

  length of vectors
     5.232272927  5.232272927  5.232272927     0.191121529  0.191121529  0.191121529


 
 k-points in units of 2pi/SCALE and weight: Automatic mesh                          
   0.00000000  0.00000000  0.00000000       0.016
   0.04778038  0.00000000  0.00000000       0.094
   0.09556076  0.00000000  0.00000000       0.047
   0.04778038  0.04778038  0.00000000       0.188
   0.09556076  0.04778038  0.00000000       0.188
   0.09556076  0.09556076  0.00000000       0.047
   0.04778038  0.04778038  0.04778038       0.125
   0.09556076  0.04778038  0.04778038       0.188
   0.09556076  0.09556076  0.04778038       0.094
   0.09556076  0.09556076  0.09556076       0.016
 
 k-points in reciprocal lattice and weights: Automatic mesh                          
   0.00000000  0.00000000  0.00000000       0.016
   0.25000000  0.00000000  0.00000000       0.094
   0.50000000  0.00000000  0.00000000       0.047
   0.25000000  0.25000000  0.00000000       0.188
   0.50000000  0.25000000  0.00000000       0.188
   0.50000000  0.50000000  0.00000000       0.047
   0.25000000  0.25000000  0.25000000       0.125
   0.50000000  0.25000000  0.25000000       0.188
   0.50000000  0.50000000  0.25000000       0.094
   0.50000000  0.50000000  0.50000000       0.016
 
 position of ions in fractional coordinates (direct lattice) 
   0.00000000  0.00000000  0.00000000
   0.00000000  0.50000000  0.50000000
   0.50000000  0.00000000  0.50000000
   0.50000000  0.50000000  0.00000000
   0.50000000  0.00000000  0.00000000
   0.50000000  0.50000000  0.50000000
   0.00000000  0.00000000  0.50000000
   0.00000000  0.50000000  0.00000000
 
 position of ions in cartesian coordinates  (Angst):
   0.00000000  0.00000000  0.00000000
   0.00000000  2.61613646  2.61613646
   2.61613646  0.00000000  2.61613646
   2.61613646  2.61613646  0.00000000
   2.61613646  0.00000000  0.00000000
   2.61613646  2.61613646  2.61613646
   0.00000000  0.00000000  2.61613646
   0.00000000  2.61613646  0.00000000
 


--------------------------------------------------------------------------------------------------------


 k-point  1 :   0.0000 0.0000 0.0000  plane waves:    3887
 k-point  2 :   0.2500 0.0000 0.0000  plane waves:    3932
 k-point  3 :   0.5000 0.0000 0.0000  plane waves:    3948
 k-point  4 :   0.2500 0.2500 0.0000  plane waves:    3894
 k-point  5 :   0.5000 0.2500 0.0000  plane waves:    3924
 k-point  6 :   0.5000 0.5000 0.0000  plane waves:    3932
 k-point  7 :   0.2500 0.2500 0.2500  plane waves:    3893
 k-point  8 :   0.5000 0.2500 0.2500  plane waves:    3920
 k-point  9 :   0.5000 0.5000 0.2500  plane waves:    3952
 k-point 10 :   0.5000 0.5000 0.5000  plane waves:    3912

 maximum and minimum number of plane-waves per node :       816      755

 maximum number of plane-waves:      3952
 maximum index in each direction: 
   IXMAX=    9   IYMAX=    9   IZMAX=    9
   IXMIN=  -10   IYMIN=  -10   IZMIN=  -10

 NGX is ok and might be reduce to  40
 NGY is ok and might be reduce to  40
 NGZ is ok and might be reduce to  40

 parallel 3D FFT for wavefunctions:
    minimum data exchange during FFTs selected (reduces bandwidth)
 parallel 3D FFT for charge:
    minimum data exchange during FFTs selected (reduces bandwidth)


 total amount of memory used by VASP on root node    39070. kBytes
========================================================================

   base      :      30000. kBytes
   nonl-proj :       1748. kBytes
   fftplans  :       4155. kBytes
   grid      :       1976. kBytes
   one-center:         16. kBytes
   wavefun   :       1175. kBytes
 
     INWAV:  cpu time    0.00: real time    0.00
 Broyden mixing: mesh for mixing (old mesh)
   NGX = 19   NGY = 19   NGZ = 19
  (NGX  = 80   NGY  = 80   NGZ  = 80)
  gives a total of   6859 points

 initial charge density was supplied:
 charge density of overlapping atoms calculated
 number of electron      56.0000000 magnetization 
 keeping initial charge density in first step


--------------------------------------------------------------------------------------------------------


 Maximum index for augmentation-charges         5735 (set IRDMAX)


--------------------------------------------------------------------------------------------------------


 First call to EWALD:  gamma=   0.339
 Maximum number of real-space cells 3x 3x 3
 Maximum number of reciprocal cells 3x 3x 3

 FEWALD executed in parallel
    FEWALD:  cpu time    0.00: real time    0.00


----------------------------------------- Iteration    1(   1)  ---------------------------------------


    POTLOK:  cpu time    0.02: real time    0.02
    SETDIJ:  cpu time    0.03: real time    0.03
     EDDAV:  cpu time    0.30: real time    0.30
       DOS:  cpu time    0.00: real time    0.00
    --------------------------------------------
      LOOP:  cpu time    0.35: real time    0.36

 eigenvalue-minimisations  :   904
 total energy-change (2. order) : 0.4611948E+03  (-0.3453770E+04)
 number of electron      56.0000000 magnetization 
 augmentation part       56.0000000 magnetization 

 Free energy of the ion-electron system (eV)
  ---------------------------------------------------
  alpha Z        PSCENC =       148.22875898
  Ewald energy   TEWEN  =     -3099.42877140
  -Hartree energ DENC   =     -1177.66224828
  -exchange      EXHF   =         0.00000000
  -V(xc)+E(xc)   XCENC  =       158.94264286
  PAW double counting   =      3462.71711756    -3919.80126840
  entropy T*S    EENTRO =        -0.00033126
  eigenvalues    EBANDS =      -433.50652470
  atomic energy  EATOM  =      5321.70543053
  ---------------------------------------------------
  free energy    TOTEN  =       461.19480589 eV

  energy without entropy =      461.19513715  energy(sigma->0) =      461.19497152


--------------------------------------------------------------------------------------------------------




----------------------------------------- Iteration    1(   2)  ---------------------------------------


     EDDAV:  cpu time    0.27: real time    0.27
       DOS:  cpu time    0.00: real time    0.00
    --------------------------------------------
      LOOP:  cpu time    0.27: real time    0.28

 eigenvalue-minimisations  :   884
 total energy-change (2. order) :-0.4639652E+03  (-0.4517699E+03)
 number of electron      56.0000000 magnetization 
 augmentation part       56.0000000 magnetization 

 Free energy of the ion-electron system (eV)
  ---------------------------------------------------
  alpha Z        PSCENC =       148.22875898
  Ewald energy   TEWEN  =     -3099.42877140
  -Hartree energ DENC   =     -1177.66224828
  -exchange      EXHF   =         0.00000000
  -V(xc)+E(xc)   XCENC  =       158.94264286
  PAW double counting   =      3462.71711756    -3919.80126840
  entropy T*S    EENTRO =         0.00000000
  eigenvalues    EBANDS =      -897.47201090
  atomic energy  EATOM  =      5321.70543053
  ---------------------------------------------------
  free energy    TOTEN  =        -2.77034905 eV

  energy without entropy =       -2.77034905  energy(sigma->0) =       -2.77034905


--------------------------------------------------------------------------------------------------------




----------------------------------------- Iteration    1(   3)  ---------------------------------------


     EDDAV:  cpu time    0.26: real time    0.26
       DOS:  cpu time    0.00: real time    0.00
    --------------------------------------------
      LOOP:  cpu time    0.26: real time    0.27

 eigenvalue-minimisations  :   844
 total energy-change (2. order) :-0.3378665E+02  (-0.3357503E+02)
 number of electron      56.0000000 magnetization 
 augmentation part       56.0000000 magnetization 

 Free energy of the ion-electron system (eV)
  ---------------------------------------------------
  alpha Z        PSCENC =       148.22875898
  Ewald energy   TEWEN  =     -3099.42877140
  -Hartree energ DENC   =     -1177.66224828
  -exchange      EXHF   =         0.00000000
  -V(xc)+E(xc)   XCENC  =       158.94264286
  PAW double counting   =      3462.71711756    -3919.80126840
  entropy T*S    EENTRO =         0.00000000
  eigenvalues    EBANDS =      -931.25866230
  atomic energy  EATOM  =      5321.70543053
  ---------------------------------------------------
  free energy    TOTEN  =       -36.55700045 eV

  energy without entropy =      -36.55700045  energy(sigma->0) =      -36.55700045


--------------------------------------------------------------------------------------------------------




----------------------------------------- Iteration    1(   4)  ---------------------------------------


     EDDAV:  cpu time    0.27: real time    0.27
       DOS:  cpu time    0.00: real time    0.00
    --------------------------------------------
      LOOP:  cpu time    0.27: real time    0.28

 eigenvalue-minimisations  :   884
 total energy-change (2. order) :-0.1139903E+01  (-0.1136667E+01)
 number of electron      56.0000000 magnetization 
 augmentation part       56.0000000 magnetization 

 Free energy of the ion-electron system (eV)
  ---------------------------------------------------
  alpha Z        PSCENC =       148.22875898
  Ewald energy   TEWEN  =     -3099.42877140
  -Hartree energ DENC   =     -1177.66224828
  -exchange      EXHF   =         0.00000000
  -V(xc)+E(xc)   XCENC  =       158.94264286
  PAW double counting   =      3462.71711756    -3919.80126840
  entropy T*S    EENTRO =         0.00000000
  eigenvalues    EBANDS =      -932.39856492
  atomic energy  EATOM  =      5321.70543053
  ---------------------------------------------------
  free energy    TOTEN  =       -37.69690307 eV

  energy without entropy =      -37.69690307  energy(sigma->0) =      -37.69690307


--------------------------------------------------------------------------------------------------------




----------------------------------------- Iteration    1(   5)  ---------------------------------------


     EDDAV:  cpu time    0.27: real time    0.27
       DOS:  cpu time    0.00: real time    0.00
    CHARGE:  cpu time    0.06: real time    0.06
    MIXING:  cpu time    0.00: real time    0.00
    --------------------------------------------
      LOOP:  cpu time    0.33: real time    0.33

 eigenvalue-minimisations  :   864
 total energy-change (2. order) :-0.2781018E-01  (-0.2780463E-01)
 number of electron      56.0000003 magnetization 
 augmentation part       13.1774979 magnetization 

 Broyden mixing:
  rms(total) = 0.82907E+00    rms(broyden)= 0.82900E+00
  rms(prec ) = 0.14122E+01
  weight for this iteration     100.00

 Free energy of the ion-electron system (eV)
  ---------------------------------------------------
  alpha Z        PSCENC =       148.22875898
  Ewald energy   TEWEN  =     -3099.42877140
  -Hartree energ DENC   =     -1177.66224828
  -exchange      EXHF   =         0.00000000
  -V(xc)+E(xc)   XCENC  =       158.94264286
  PAW double counting   =      3462.71711756    -3919.80126840
  entropy T*S    EENTRO =         0.00000000
  eigenvalues    EBANDS =      -932.42637510
  atomic energy  EATOM  =      5321.70543053
  ---------------------------------------------------
  free energy    TOTEN  =       -37.72471325 eV

  energy without entropy =      -37.72471325  energy(sigma->0) =      -37.72471325


--------------------------------------------------------------------------------------------------------




----------------------------------------- Iteration    1(   6)  ---------------------------------------


    POTLOK:  cpu time    0.02: real time    0.02
    SETDIJ:  cpu time    0.03: real time    0.03
     EDDAV:  cpu time    0.25: real time    0.25
       DOS:  cpu time    0.00: real time    0.00
    CHARGE:  cpu time    0.06: real time    0.06
    MIXING:  cpu time    0.00: real time    0.00
    --------------------------------------------
      LOOP:  cpu time    0.35: real time    0.35

 eigenvalue-minimisations  :   776
 total energy-change (2. order) : 0.1352250E+01  (-0.2719684E+00)
 number of electron      56.0000003 magnetization 
 augmentation part       13.3394906 magnetization 

 Broyden mixing:
  rms(total) = 0.61100E+00    rms(broyden)= 0.61100E+00
  rms(prec ) = 0.76120E+00
  weight for this iteration     100.00

 eigenvalues of (default mixing * dielectric matrix)
  average eigenvalue GAMMA=   1.9235
  1.9235

 Free energy of the ion-electron system (eV)
  ---------------------------------------------------
  alpha Z        PSCENC =       148.22875898
  Ewald energy   TEWEN  =     -3099.42877140
  -Hartree energ DENC   =     -1176.14635434
  -exchange      EXHF   =         0.00000000
  -V(xc)+E(xc)   XCENC  =       160.05235631
  PAW double counting   =      3717.54343022    -4170.85468703
  entropy T*S    EENTRO =         0.00000000
  eigenvalues    EBANDS =      -937.47262650
  atomic energy  EATOM  =      5321.70543053
  ---------------------------------------------------
  free energy    TOTEN  =       -36.37246324 eV

  energy without entropy =      -36.37246324  energy(sigma->0) =      -36.37246324


--------------------------------------------------------------------------------------------------------




----------------------------------------- Iteration    1(   7)  ---------------------------------------


    POTLOK:  cpu time    0.02: real time    0.02
    SETDIJ:  cpu time    0.03: real time    0.03
     EDDAV:  cpu time    0.28: real time    0.28
       DOS:  cpu time    0.00: real time    0.00
    CHARGE:  cpu time    0.06: real time    0.06
    MIXING:  cpu time    0.00: real time    0.00
    --------------------------------------------
      LOOP:  cpu time    0.38: real time    0.38

 eigenvalue-minimisations  :   900
 total energy-change (2. order) : 0.1599719E+00  (-0.7468465E-01)
 number of electron      56.0000003 magnetization 
 augmentation part       13.4252846 magnetization 

 Broyden mixing:
  rms(total) = 0.35309E+00    rms(broyden)= 0.35309E+00
  rms(prec ) = 0.38168E+00
  weight for this iteration     100.00

 eigenvalues of (default mixing * dielectric matrix)
  average eigenvalue GAMMA=   2.2478
  1.4314  3.0642

 Free energy of the ion-electron system (eV)
  ---------------------------------------------------
  alpha Z        PSCENC =       148.22875898
  Ewald energy   TEWEN  =     -3099.42877140
  -Hartree energ DENC   =     -1172.71849940
  -exchange      EXHF   =         0.00000000
  -V(xc)+E(xc)   XCENC  =       160.78223729
  PAW double counting   =      4173.97321793    -4625.85621221
  entropy T*S    EENTRO =         0.00000000
  eigenvalues    EBANDS =      -942.89865304
  atomic energy  EATOM  =      5321.70543053
  ---------------------------------------------------
  free energy    TOTEN  =       -36.21249132 eV

  energy without entropy =      -36.21249132  energy(sigma->0) =      -36.21249132


--------------------------------------------------------------------------------------------------------




----------------------------------------- Iteration    1(   8)  ---------------------------------------


    POTLOK:  cpu time    0.02: real time    0.02
    SETDIJ:  cpu time    0.03: real time    0.03
     EDDAV:  cpu time    0.25: real time    0.25
       DOS:  cpu time    0.00: real time    0.00
    CHARGE:  cpu time    0.06: real time    0.06
    MIXING:  cpu time    0.00: real time    0.00
    --------------------------------------------
      LOOP:  cpu time    0.36: real time    0.36

 eigenvalue-minimisations  :   804
 total energy-change (2. order) : 0.7530131E-02  (-0.4923138E-02)
 number of electron      56.0000003 magnetization 
 augmentation part       13.4077283 magnetization 

 Broyden mixing:
  rms(total) = 0.10677E+00    rms(broyden)= 0.10677E+00
  rms(prec ) = 0.11052E+00
  weight for this iteration     100.00

 eigenvalues of (default mixing * dielectric matrix)
  average eigenvalue GAMMA=   1.5816
  2.4926  0.8620  1.3901

 Free energy of the ion-electron system (eV)
  ---------------------------------------------------
  alpha Z        PSCENC =       148.22875898
  Ewald energy   TEWEN  =     -3099.42877140
  -Hartree energ DENC   =     -1167.83237096
  -exchange      EXHF   =         0.00000000
  -V(xc)+E(xc)   XCENC  =       160.98924544
  PAW double counting   =      4755.50652265    -5208.25739465
  entropy T*S    EENTRO =         0.00000000
  eigenvalues    EBANDS =      -947.11638178
  atomic energy  EATOM  =      5321.70543053
  ---------------------------------------------------
  free energy    TOTEN  =       -36.20496119 eV

  energy without entropy =      -36.20496119  energy(sigma->0) =      -36.20496119


--------------------------------------------------------------------------------------------------------




----------------------------------------- Iteration    1(   9)  ---------------------------------------


    POTLOK:  cpu time    0.02: real time    0.02
    SETDIJ:  cpu time    0.03: real time    0.03
     EDDAV:  cpu time    0.30: real time    0.30
       DOS:  cpu time    0.00: real time    0.00
    CHARGE:  cpu time    0.06: real time    0.06
    MIXING:  cpu time    0.00: real time    0.00
    --------------------------------------------
      LOOP:  cpu time    0.40: real time    0.40

 eigenvalue-minimisations  :   860
 total energy-change (2. order) : 0.8670284E-03  (-0.2503322E-03)
 number of electron      56.0000003 magnetization 
 augmentation part       13.4115123 magnetization 

 Broyden mixing:
  rms(total) = 0.31762E-01    rms(broyden)= 0.31762E-01
  rms(prec ) = 0.32874E-01
  weight for this iteration     100.00

 eigenvalues of (default mixing * dielectric matrix)
  average eigenvalue GAMMA=   1.8082
  2.6375  2.1228  1.1519  1.3205

 Free energy of the ion-electron system (eV)
  ---------------------------------------------------
  alpha Z        PSCENC =       148.22875898
  Ewald energy   TEWEN  =     -3099.42877140
  -Hartree energ DENC   =     -1168.43405877
  -exchange      EXHF   =         0.00000000
  -V(xc)+E(xc)   XCENC  =       160.96785048
  PAW double counting   =      4647.57986057    -5100.17484864
  entropy T*S    EENTRO =         0.00000000
  eigenvalues    EBANDS =      -946.64831590
  atomic energy  EATOM  =      5321.70543053
  ---------------------------------------------------
  free energy    TOTEN  =       -36.20409416 eV

  energy without entropy =      -36.20409416  energy(sigma->0) =      -36.20409416


--------------------------------------------------------------------------------------------------------




----------------------------------------- Iteration    1(  10)  ---------------------------------------


    POTLOK:  cpu time    0.01: real time    0.02
    SETDIJ:  cpu time    0.03: real time    0.03
     EDDAV:  cpu time    0.28: real time    0.28
       DOS:  cpu time    0.00: real time    0.00
    CHARGE:  cpu time    0.06: real time    0.06
    MIXING:  cpu time    0.00: real time    0.00
    --------------------------------------------
      LOOP:  cpu time    0.39: real time    0.39

 eigenvalue-minimisations  :   912
 total energy-change (2. order) :-0.2467166E-04  (-0.6244388E-04)
 number of electron      56.0000003 magnetization 
 augmentation part       13.4139871 magnetization 

 Broyden mixing:
  rms(total) = 0.19073E-02    rms(broyden)= 0.19073E-02
  rms(prec ) = 0.32745E-02
  weight for this iteration     100.00

 eigenvalues of (default mixing * dielectric matrix)
  average eigenvalue GAMMA=   1.6948
  2.7207  2.5061  1.3105  1.0393  0.8975

 Free energy of the ion-electron system (eV)
  ---------------------------------------------------
  alpha Z        PSCENC =       148.22875898
  Ewald energy   TEWEN  =     -3099.42877140
  -Hartree energ DENC   =     -1168.18665539
  -exchange      EXHF   =         0.00000000
  -V(xc)+E(xc)   XCENC  =       160.96846763
  PAW double counting   =      4602.92843590    -5055.55004480
  entropy T*S    EENTRO =         0.00000000
  eigenvalues    EBANDS =      -946.86974028
  atomic energy  EATOM  =      5321.70543053
  ---------------------------------------------------
  free energy    TOTEN  =       -36.20411883 eV

  energy without entropy =      -36.20411883  energy(sigma->0) =      -36.20411883


--------------------------------------------------------------------------------------------------------




----------------------------------------- Iteration    1(  11)  ---------------------------------------


    POTLOK:  cpu time    0.01: real time    0.02
    SETDIJ:  cpu time    0.03: real time    0.03
     EDDAV:  cpu time    0.26: real time    0.26
       DOS:  cpu time    0.00: real time    0.00
    CHARGE:  cpu time    0.06: real time    0.06
    MIXING:  cpu time    0.00: real time    0.00
    --------------------------------------------
      LOOP:  cpu time    0.37: real time    0.37

 eigenvalue-minimisations  :   836
 total energy-change (2. order) : 0.3417534E-05  (-0.2813830E-05)
 number of electron      56.0000003 magnetization 
 augmentation part       13.4136021 magnetization 

 Broyden mixing:
  rms(total) = 0.26321E-02    rms(broyden)= 0.26321E-02
  rms(prec ) = 0.27288E-02
  weight for this iteration     100.00

 eigenvalues of (default mixing * dielectric matrix)
  average eigenvalue GAMMA=   1.6613
  2.7362  2.4512  1.4236  0.9875  1.1847  1.1847

 Free energy of the ion-electron system (eV)
  ---------------------------------------------------
  alpha Z        PSCENC =       148.22875898
  Ewald energy   TEWEN  =     -3099.42877140
  -Hartree energ DENC   =     -1168.13075513
  -exchange      EXHF   =         0.00000000
  -V(xc)+E(xc)   XCENC  =       160.96420243
  PAW double counting   =      4596.43668858    -5049.08564888
  entropy T*S    EENTRO =         0.00000000
  eigenvalues    EBANDS =      -946.89402053
  atomic energy  EATOM  =      5321.70543053
  ---------------------------------------------------
  free energy    TOTEN  =       -36.20411541 eV

  energy without entropy =      -36.20411541  energy(sigma->0) =      -36.20411541


--------------------------------------------------------------------------------------------------------




----------------------------------------- Iteration    1(  12)  ---------------------------------------


    POTLOK:  cpu time    0.01: real time    0.02
    SETDIJ:  cpu time    0.03: real time    0.03
     EDDAV:  cpu time    0.26: real time    0.26
       DOS:  cpu time    0.00: real time    0.00
    CHARGE:  cpu time    0.06: real time    0.06
    MIXING:  cpu time    0.00: real time    0.00
    --------------------------------------------
      LOOP:  cpu time    0.37: real time    0.37

 eigenvalue-minimisations  :   836
 total energy-change (2. order) : 0.8765955E-06  (-0.2034670E-06)
 number of electron      56.0000003 magnetization 
 augmentation part       13.4134579 magnetization 

 Broyden mixing:
  rms(total) = 0.33800E-03    rms(broyden)= 0.33799E-03
  rms(prec ) = 0.40386E-03
  weight for this iteration     100.00

 eigenvalues of (default mixing * dielectric matrix)
  average eigenvalue GAMMA=   1.7119
  2.7807  2.4844  2.4844  1.2186  1.2186  0.9847  0.8117

 Free energy of the ion-electron system (eV)
  ---------------------------------------------------
  alpha Z        PSCENC =       148.22875898
  Ewald energy   TEWEN  =     -3099.42877140
  -Hartree energ DENC   =     -1168.13456478
  -exchange      EXHF   =         0.00000000
  -V(xc)+E(xc)   XCENC  =       160.96458306
  PAW double counting   =      4599.35773247    -5052.00885389
  entropy T*S    EENTRO =         0.00000000
  eigenvalues    EBANDS =      -946.88842950
  atomic energy  EATOM  =      5321.70543053
  ---------------------------------------------------
  free energy    TOTEN  =       -36.20411454 eV

  energy without entropy =      -36.20411454  energy(sigma->0) =      -36.20411454


--------------------------------------------------------------------------------------------------------




----------------------------------------- Iteration    1(  13)  ---------------------------------------


    POTLOK:  cpu time    0.02: real time    0.02
    SETDIJ:  cpu time    0.03: real time    0.03
     EDDAV:  cpu time    0.28: real time    0.28
       DOS:  cpu time    0.00: real time    0.00
    CHARGE:  cpu time    0.06: real time    0.06
    MIXING:  cpu time    0.00: real time    0.00
    --------------------------------------------
      LOOP:  cpu time    0.38: real time    0.39

 eigenvalue-minimisations  :   888
 total energy-change (2. order) : 0.8074676E-07  (-0.1956166E-07)
 number of electron      56.0000003 magnetization 
 augmentation part       13.4134108 magnetization 

 Broyden mixing:
  rms(total) = 0.17265E-03    rms(broyden)= 0.17265E-03
  rms(prec ) = 0.17487E-03
  weight for this iteration     100.00

 eigenvalues of (default mixing * dielectric matrix)
  average eigenvalue GAMMA=   1.6159
  2.8734  2.5843  2.4872  1.2415  1.0995  0.9679  0.8365  0.8365

 Free energy of the ion-electron system (eV)
  ---------------------------------------------------
  alpha Z        PSCENC =       148.22875898
  Ewald energy   TEWEN  =     -3099.42877140
  -Hartree energ DENC   =     -1168.13782803
  -exchange      EXHF   =         0.00000000
  -V(xc)+E(xc)   XCENC  =       160.96447202
  PAW double counting   =      4599.82526840    -5052.47786735
  entropy T*S    EENTRO =         0.00000000
  eigenvalues    EBANDS =      -946.88357761
  atomic energy  EATOM  =      5321.70543053
  ---------------------------------------------------
  free energy    TOTEN  =       -36.20411445 eV

  energy without entropy =      -36.20411445  energy(sigma->0) =      -36.20411445


--------------------------------------------------------------------------------------------------------




----------------------------------------- Iteration    1(  14)  ---------------------------------------


    POTLOK:  cpu time    0.01: real time    0.02
    SETDIJ:  cpu time    0.03: real time    0.03
     EDDAV:  cpu time    0.26: real time    0.26
       DOS:  cpu time    0.00: real time    0.00
    CHARGE:  cpu time    0.06: real time    0.06
    MIXING:  cpu time    0.00: real time    0.00
    --------------------------------------------
      LOOP:  cpu time    0.36: real time    0.37

 eigenvalue-minimisations  :   788
 total energy-change (2. order) : 0.2429351E-07  (-0.9895434E-09)
 number of electron      56.0000003 magnetization 
 augmentation part       13.4134017 magnetization 

 Broyden mixing:
  rms(total) = 0.19557E-03    rms(broyden)= 0.19557E-03
  rms(prec ) = 0.19780E-03
  weight for this iteration     100.00

 eigenvalues of (default mixing * dielectric matrix)
  average eigenvalue GAMMA=   1.7734
  2.8386  2.8386  2.4531  2.4531  1.2411  1.2411  1.0391  0.9919  0.8642

 Free energy of the ion-electron system (eV)
  ---------------------------------------------------
  alpha Z        PSCENC =       148.22875898
  Ewald energy   TEWEN  =     -3099.42877140
  -Hartree energ DENC   =     -1168.13803005
  -exchange      EXHF   =         0.00000000
  -V(xc)+E(xc)   XCENC  =       160.96445261
  PAW double counting   =      4599.82044197    -5052.47321535
  entropy T*S    EENTRO =         0.00000000
  eigenvalues    EBANDS =      -946.88318172
  atomic energy  EATOM  =      5321.70543053
  ---------------------------------------------------
  free energy    TOTEN  =       -36.20411443 eV

  energy without entropy =      -36.20411443  energy(sigma->0) =      -36.20411443


--------------------------------------------------------------------------------------------------------




----------------------------------------- Iteration    1(  15)  ---------------------------------------


    POTLOK:  cpu time    0.01: real time    0.02
    SETDIJ:  cpu time    0.03: real time    0.03
     EDDAV:  cpu time    0.23: real time    0.23
       DOS:  cpu time    0.00: real time    0.00
    CHARGE:  cpu time    0.06: real time    0.06
    MIXING:  cpu time    0.00: real time    0.00
    --------------------------------------------
      LOOP:  cpu time    0.34: real time    0.34

 eigenvalue-minimisations  :   688
 total energy-change (2. order) :-0.4231697E-07  (-0.4688486E-09)
 number of electron      56.0000003 magnetization 
 augmentation part       13.4134063 magnetization 

 Broyden mixing:
  rms(total) = 0.85071E-04    rms(broyden)= 0.85071E-04
  rms(prec ) = 0.85642E-04
  weight for this iteration     100.00

 eigenvalues of (default mixing * dielectric matrix)
  average eigenvalue GAMMA=   1.6875
  3.0547  2.7304  2.4771  2.3358  1.2174  1.2174  0.9962  0.9962  1.0033  0.8464

 Free energy of the ion-electron system (eV)
  ---------------------------------------------------
  alpha Z        PSCENC =       148.22875898
  Ewald energy   TEWEN  =     -3099.42877140
  -Hartree energ DENC   =     -1168.13914793
  -exchange      EXHF   =         0.00000000
  -V(xc)+E(xc)   XCENC  =       160.96442809
  PAW double counting   =      4599.44393041    -5052.09674294
  entropy T*S    EENTRO =         0.00000000
  eigenvalues    EBANDS =      -946.88200021
  atomic energy  EATOM  =      5321.70543053
  ---------------------------------------------------
  free energy    TOTEN  =       -36.20411447 eV

  energy without entropy =      -36.20411447  energy(sigma->0) =      -36.20411447


--------------------------------------------------------------------------------------------------------




----------------------------------------- Iteration    1(  16)  ---------------------------------------


    POTLOK:  cpu time    0.02: real time    0.02
    SETDIJ:  cpu time    0.03: real time    0.03
     EDDAV:  cpu time    0.17: real time    0.17
       DOS:  cpu time    0.00: real time    0.00
    CHARGE:  cpu time    0.06: real time    0.06
    MIXING:  cpu time    0.00: real time    0.00
    --------------------------------------------
      LOOP:  cpu time    0.27: real time    0.28

 eigenvalue-minimisations  :   428
 total energy-change (2. order) : 0.1284934E-07  (-0.1507062E-10)
 number of electron      56.0000003 magnetization 
 augmentation part       13.4134064 magnetization 

 Broyden mixing:
  rms(total) = 0.23821E-04    rms(broyden)= 0.23821E-04
  rms(prec ) = 0.23984E-04
  weight for this iteration     100.00

 eigenvalues of (default mixing * dielectric matrix)
  average eigenvalue GAMMA=   1.6328
  2.9188  2.7668  2.5116  2.2960  1.1269  1.1269  1.2085  1.2085  0.9867  0.9396
  0.8705

 Free energy of the ion-electron system (eV)
  ---------------------------------------------------
  alpha Z        PSCENC =       148.22875898
  Ewald energy   TEWEN  =     -3099.42877140
  -Hartree energ DENC   =     -1168.13906601
  -exchange      EXHF   =         0.00000000
  -V(xc)+E(xc)   XCENC  =       160.96444292
  PAW double counting   =      4599.52969789    -5052.18246831
  entropy T*S    EENTRO =         0.00000000
  eigenvalues    EBANDS =      -946.88213905
  atomic energy  EATOM  =      5321.70543053
  ---------------------------------------------------
  free energy    TOTEN  =       -36.20411446 eV

  energy without entropy =      -36.20411446  energy(sigma->0) =      -36.20411446


--------------------------------------------------------------------------------------------------------




----------------------------------------- Iteration    1(  17)  ---------------------------------------


    POTLOK:  cpu time    0.02: real time    0.02
    SETDIJ:  cpu time    0.03: real time    0.03
     EDDAV:  cpu time    0.17: real time    0.17
       DOS:  cpu time    0.00: real time    0.00
    --------------------------------------------
      LOOP:  cpu time    0.21: real time    0.22

 eigenvalue-minimisations  :   424
 total energy-change (2. order) : 0.3725290E-08  (-0.4706444E-11)
 number of electron      56.0000003 magnetization 
 augmentation part       13.4134064 magnetization 

 Free energy of the ion-electron system (eV)
  ---------------------------------------------------
  alpha Z        PSCENC =       148.22875898
  Ewald energy   TEWEN  =     -3099.42877140
  -Hartree energ DENC   =     -1168.13905967
  -exchange      EXHF   =         0.00000000
  -V(xc)+E(xc)   XCENC  =       160.96444552
  PAW double counting   =      4599.54951712    -5052.20225811
  entropy T*S    EENTRO =         0.00000000
  eigenvalues    EBANDS =      -946.88217743
  atomic energy  EATOM  =      5321.70543053
  ---------------------------------------------------
  free energy    TOTEN  =       -36.20411446 eV

  energy without entropy =      -36.20411446  energy(sigma->0) =      -36.20411446


--------------------------------------------------------------------------------------------------------




 average (electrostatic) potential at core
  the test charge radii are     0.8294  0.9698
  (the norm of the test charge is              1.0000)
       1 -42.9120       2 -42.9120       3 -42.9120       4 -42.9120       5 -86.5383
       6 -86.5383       7 -86.5383       8 -86.5383
 
 
 
 E-fermi :   3.4213     XC(G=0):  -9.9430     alpha+bet :-10.2932


 k-point     1 :       0.0000    0.0000    0.0000
  band No.  band energies     occupation 
      1     -37.9618      2.00000
      2     -37.9618      2.00000
      3     -37.9618      2.00000
      4     -37.9585      2.00000
      5     -37.9585      2.00000
      6     -37.9585      2.00000
      7     -37.9585      2.00000
      8     -37.9585      2.00000
      9     -37.9585      2.00000
     10     -37.9558      2.00000
     11     -37.9558      2.00000
     12     -37.9558      2.00000
     13      -9.2611      2.00000
     14      -7.6119      2.00000
     15      -7.6119      2.00000
     16      -7.6119      2.00000
     17      -0.8348      2.00000
     18      -0.8348      2.00000
     19      -0.8348      2.00000
     20       1.6628      2.00000
     21       1.6628      2.00000
     22       1.6628      2.00000
     23       1.6628      2.00000
     24       1.6628      2.00000
     25       1.6628      2.00000
     26       3.3305      2.00000
     27       3.3305      2.00000
     28       3.3305      2.00000
     29       6.0057      0.00000
     30       6.0057      0.00000
     31       6.0057      0.00000
     32       6.7974      0.00000
     33       7.6202      0.00000
     34       7.6202      0.00000
     35       7.6202      0.00000
     36      11.1918      0.00000

 k-point     2 :       0.2500    0.0000    0.0000
  band No.  band energies     occupation 
      1     -37.9614      2.00000
      2     -37.9614      2.00000
      3     -37.9612      2.00000
      4     -37.9590      2.00000
      5     -37.9590      2.00000
      6     -37.9586      2.00000
      7     -37.9586      2.00000
      8     -37.9582      2.00000
      9     -37.9582      2.00000
     10     -37.9570      2.00000
     11     -37.9563      2.00000
     12     -37.9563      2.00000
     13      -9.0621      2.00000
     14      -7.9108      2.00000
     15      -7.5887      2.00000
     16      -7.5887      2.00000
     17      -0.5854      2.00000
     18      -0.5854      2.00000
     19      -0.3853      2.00000
     20       1.0953      2.00000
     21       1.0953      2.00000
     22       1.2868      2.00000
     23       1.2868      2.00000
     24       1.8524      2.00000
     25       1.8524      2.00000
     26       2.3063      2.00000
     27       3.0087      2.00000
     28       3.0087      2.00000
     29       6.6414      0.00000
     30       7.0245      0.00000
     31       7.0245      0.00000
     32       7.9333      0.00000
     33       7.9588      0.00000
     34       8.7111      0.00000
     35       8.7111      0.00000
     36      10.2209      0.00000

 k-point     3 :       0.5000    0.0000    0.0000
  band No.  band energies     occupation 
      1     -37.9602      2.00000
      2     -37.9602      2.00000
      3     -37.9602      2.00000
      4     -37.9602      2.00000
      5     -37.9591      2.00000
      6     -37.9591      2.00000
      7     -37.9587      2.00000
      8     -37.9587      2.00000
      9     -37.9573      2.00000
     10     -37.9573      2.00000
     11     -37.9573      2.00000
     12     -37.9573      2.00000
     13      -8.5336      2.00000
     14      -8.5336      2.00000
     15      -7.5652      2.00000
     16      -7.5652      2.00000
     17       0.1230      2.00000
     18       0.1230      2.00000
     19       0.1230      2.00000
     20       0.1230      2.00000
     21       0.7740      2.00000
     22       0.7740      2.00000
     23       0.9818      2.00000
     24       0.9818      2.00000
     25       2.3693      2.00000
     26       2.3693      2.00000
     27       2.3693      2.00000
     28       2.3693      2.00000
     29       8.2017      0.00000
     30       8.2017      0.00000
     31       8.4799      0.00000
     32       8.4799      0.00000
     33       8.8479      0.00000
     34       8.8479      0.00000
     35      11.1459      0.00000
     36      11.1462      0.00000

 k-point     4 :       0.2500    0.2500    0.0000
  band No.  band energies     occupation 
      1     -37.9610      2.00000
      2     -37.9610      2.00000
      3     -37.9609      2.00000
      4     -37.9599      2.00000
      5     -37.9586      2.00000
      6     -37.9586      2.00000
      7     -37.9581      2.00000
      8     -37.9580      2.00000
      9     -37.9580      2.00000
     10     -37.9579      2.00000
     11     -37.9567      2.00000
     12     -37.9561      2.00000
     13      -8.8760      2.00000
     14      -7.8410      2.00000
     15      -7.8410      2.00000
     16      -7.6101      2.00000
     17      -0.4085      2.00000
     18      -0.4085      2.00000
     19      -0.3394      2.00000
     20       0.1620      2.00000
     21       1.3058      2.00000
     22       1.3058      2.00000
     23       1.3756      2.00000
     24       1.7524      2.00000
     25       1.7524      2.00000
     26       1.9818      2.00000
     27       2.6241      2.00000
     28       3.2263      2.00000
     29       7.1313      0.00000
     30       7.5650      0.00000
     31       7.5650      0.00000
     32       8.4835      0.00000
     33       8.9762      0.00000
     34       8.9762      0.00000
     35       9.9100      0.00000
     36      10.4244      0.00000

 k-point     5 :       0.5000    0.2500    0.0000
  band No.  band energies     occupation 
      1     -37.9607      2.00000
      2     -37.9607      2.00000
      3     -37.9599      2.00000
      4     -37.9599      2.00000
      5     -37.9598      2.00000
      6     -37.9598      2.00000
      7     -37.9578      2.00000
      8     -37.9578      2.00000
      9     -37.9577      2.00000
     10     -37.9577      2.00000
     11     -37.9568      2.00000
     12     -37.9568      2.00000
     13      -8.3909      2.00000
     14      -8.3909      2.00000
     15      -7.7009      2.00000
     16      -7.7009      2.00000
     17      -0.3573      2.00000
     18      -0.3573      2.00000
     19       0.2601      2.00000
     20       0.2601      2.00000
     21       0.3571      2.00000
     22       0.3571      2.00000
     23       1.8861      2.00000
     24       1.8861      2.00000
     25       1.8911      2.00000
     26       1.8911      2.00000
     27       2.6618      2.00000
     28       2.6618      2.00000
     29       8.4699      0.00000
     30       8.4699      0.00000
     31       8.9838      0.00000
     32       8.9838      0.00000
     33       9.7046      0.00000
     34       9.7046      0.00000
     35      10.2561      0.00000
     36      10.2597      0.00000

 k-point     6 :       0.5000    0.5000    0.0000
  band No.  band energies     occupation 
      1     -37.9608      2.00000
      2     -37.9608      2.00000
      3     -37.9608      2.00000
      4     -37.9608      2.00000
      5     -37.9588      2.00000
      6     -37.9588      2.00000
      7     -37.9588      2.00000
      8     -37.9588      2.00000
      9     -37.9569      2.00000
     10     -37.9569      2.00000
     11     -37.9569      2.00000
     12     -37.9569      2.00000
     13      -8.0432      2.00000
     14      -8.0432      2.00000
     15      -8.0432      2.00000
     16      -8.0432      2.00000
     17      -0.3570      2.00000
     18      -0.3570      2.00000
     19      -0.3570      2.00000
     20      -0.3570      2.00000
     21       1.0139      2.00000
     22       1.0139      2.00000
     23       1.0139      2.00000
     24       1.0139      2.00000
     25       2.7089      2.00000
     26       2.7089      2.00000
     27       2.7089      2.00000
     28       2.7089      2.00000
     29       8.8855      0.00000
     30       8.8855      0.00000
     31       8.8855      0.00000
     32       8.8855      0.00000
     33      10.7215      0.00000
     34      10.7215      0.00000
     35      10.7217      0.00000
     36      10.7221      0.00000

 k-point     7 :       0.2500    0.2500    0.2500
  band No.  band energies     occupation 
      1     -37.9614      2.00000
      2     -37.9614      2.00000
      3     -37.9614      2.00000
      4     -37.9592      2.00000
      5     -37.9586      2.00000
      6     -37.9586      2.00000
      7     -37.9586      2.00000
      8     -37.9577      2.00000
      9     -37.9577      2.00000
     10     -37.9577      2.00000
     11     -37.9564      2.00000
     12     -37.9564      2.00000
     13      -8.7059      2.00000
     14      -7.8099      2.00000
     15      -7.8099      2.00000
     16      -7.8099      2.00000
     17      -0.6910      2.00000
     18      -0.6910      2.00000
     19      -0.6910      2.00000
     20       0.5224      2.00000
     21       1.1366      2.00000
     22       1.1366      2.00000
     23       1.1366      2.00000
     24       2.1381      2.00000
     25       2.1381      2.00000
     26       2.1381      2.00000
     27       3.0133      2.00000
     28       3.0133      2.00000
     29       7.6254      0.00000
     30       7.6254      0.00000
     31       7.6254      0.00000
     32       8.0982      0.00000
     33       9.9466      0.00000
     34       9.9466      0.00000
     35       9.9466      0.00000
     36      11.0525      0.00000

 k-point     8 :       0.5000    0.2500    0.2500
  band No.  band energies     occupation 
      1     -37.9616      2.00000
      2     -37.9616      2.00000
      3     -37.9610      2.00000
      4     -37.9610      2.00000
      5     -37.9585      2.00000
      6     -37.9585      2.00000
      7     -37.9575      2.00000
      8     -37.9575      2.00000
      9     -37.9571      2.00000
     10     -37.9571      2.00000
     11     -37.9571      2.00000
     12     -37.9571      2.00000
     13      -8.2735      2.00000
     14      -8.2735      2.00000
     15      -7.7781      2.00000
     16      -7.7781      2.00000
     17      -0.9519      2.00000
     18      -0.9519      2.00000
     19      -0.4115      2.00000
     20      -0.4115      2.00000
     21       1.2052      2.00000
     22       1.2052      2.00000
     23       2.1909      2.00000
     24       2.1909      2.00000
     25       2.4241      2.00000
     26       2.4241      2.00000
     27       2.5477      2.00000
     28       2.5477      2.00000
     29       8.4542      0.00000
     30       8.4542      0.00000
     31       8.7969      0.00000
     32       8.7969      0.00000
     33       9.2836      0.00000
     34       9.2836      0.00000
     35       9.8356      0.00000
     36       9.8356      0.00000

 k-point     9 :       0.5000    0.5000    0.2500
  band No.  band energies     occupation 
      1     -37.9619      2.00000
      2     -37.9619      2.00000
      3     -37.9619      2.00000
      4     -37.9619      2.00000
      5     -37.9577      2.00000
      6     -37.9577      2.00000
      7     -37.9577      2.00000
      8     -37.9577      2.00000
      9     -37.9570      2.00000
     10     -37.9570      2.00000
     11     -37.9570      2.00000
     12     -37.9570      2.00000
     13      -8.0061      2.00000
     14      -8.0061      2.00000
     15      -8.0061      2.00000
     16      -8.0061      2.00000
     17      -1.0558      2.00000
     18      -1.0558      2.00000
     19      -1.0558      2.00000
     20      -1.0558      2.00000
     21       1.9836      2.00000
     22       1.9836      2.00000
     23       1.9836      2.00000
     24       1.9836      2.00000
     25       2.7285      2.00000
     26       2.7285      2.00000
     27       2.7285      2.00000
     28       2.7285      2.00000
     29       8.5096      0.00000
     30       8.5096      0.00000
     31       8.5096      0.00000
     32       8.5096      0.00000
     33       9.7050      0.00000
     34       9.7050      0.00000
     35       9.7050      0.00000
     36       9.7050      0.00000

 k-point    10 :       0.5000    0.5000    0.5000
  band No.  band energies     occupation 
      1     -37.9626      2.00000
      2     -37.9626      2.00000
      3     -37.9626      2.00000
      4     -37.9626      2.00000
      5     -37.9569      2.00000
      6     -37.9569      2.00000
      7     -37.9569      2.00000
      8     -37.9569      2.00000
      9     -37.9569      2.00000
     10     -37.9569      2.00000
     11     -37.9569      2.00000
     12     -37.9569      2.00000
     13      -7.9678      2.00000
     14      -7.9678      2.00000
     15      -7.9678      2.00000
     16      -7.9678      2.00000
     17      -1.4768      2.00000
     18      -1.4768      2.00000
     19      -1.4768      2.00000
     20      -1.4768      2.00000
     21       2.7486      2.00000
     22       2.7486      2.00000
     23       2.7486      2.00000
     24       2.7486      2.00000
     25       2.7486      2.00000
     26       2.7486      2.00000
     27       2.7486      2.00000
     28       2.7486      2.00000
     29       7.7077      0.00000
     30       7.7077      0.00000
     31       7.7077      0.00000
     32       7.7077      0.00000
     33      10.1402      0.00000
     34      10.1402      0.00000
     35      10.1402      0.00000
     36      10.1402      0.00000


--------------------------------------------------------------------------------------------------------


 soft charge-density along one line, spin component           1
         0         1         2         3         4         5         6         7         8         9
 total charge-density along one line
 
 pseudopotential strength for first ion, spin component:           1
-49.386   0.000   0.000   6.076   0.000   0.000   0.000   0.000
  0.000 -49.386   0.000   0.000   6.076   0.000   0.000   0.000
  0.000   0.000 -49.386   0.000   0.000   6.076   0.000   0.000
  6.076   0.000   0.000   4.600   0.000   0.000   0.000   0.000
  0.000   6.076   0.000   0.000   4.600   0.000   0.000   0.000
  0.000   0.000   6.076   0.000   0.000   4.600   0.000   0.000
  0.000   0.000   0.000   0.000   0.000   0.000   2.966 -10.886
  0.000   0.000   0.000   0.000   0.000   0.000 -10.886  45.322
  0.000   0.000   0.000   0.000   0.000   0.000   0.000   0.000
  0.000   0.000   0.000   0.000   0.000   0.000   0.000   0.000
  0.000   0.000   0.000   0.000   0.000   0.000   0.000   0.000
  0.000   0.000   0.000   0.000   0.000   0.000   0.000   0.000
  0.000   0.000   0.000   0.000   0.000   0.000   0.000   0.000
 total augmentation occupancy for first ion, spin component:           1
  2.002   0.000   0.000  -0.001   0.000   0.000   0.000   0.000   0.000   0.000   0.000   0.000   0.000
  0.000   2.002   0.000   0.000  -0.001   0.000   0.000   0.000   0.000   0.000   0.000   0.000   0.000
  0.000   0.000   2.002   0.000   0.000  -0.001   0.000   0.000   0.000   0.000   0.000   0.000   0.000
 -0.001   0.000   0.000   0.056   0.000   0.000   0.000   0.000   0.000   0.000   0.000   0.000   0.000
  0.000  -0.001   0.000   0.000   0.056   0.000   0.000   0.000   0.000   0.000   0.000   0.000   0.000
  0.000   0.000  -0.001   0.000   0.000   0.056   0.000   0.000   0.000   0.000   0.000   0.000   0.000
  0.000   0.000   0.000   0.000   0.000   0.000   0.782   0.010   0.000   0.000   0.000   0.000   0.000
  0.000   0.000   0.000   0.000   0.000   0.000   0.010   0.000   0.000   0.000   0.000   0.000   0.000
  0.000   0.000   0.000   0.000   0.000   0.000   0.000   0.000   0.006   0.000   0.000   0.000   0.000
  0.000   0.000   0.000   0.000   0.000   0.000   0.000   0.000   0.000   0.006   0.000   0.000   0.000
  0.000   0.000   0.000   0.000   0.000   0.000   0.000   0.000   0.000   0.000   0.027   0.000   0.000
  0.000   0.000   0.000   0.000   0.000   0.000   0.000   0.000   0.000   0.000   0.000   0.006   0.000
  0.000   0.000   0.000   0.000   0.000   0.000   0.000   0.000   0.000   0.000   0.000   0.000   0.027


------------------------ aborting loop because EDIFF is reached ----------------------------------------


    CHARGE:  cpu time    0.06: real time    0.06
    FORLOC:  cpu time    0.00: real time    0.00
    FORNL :  cpu time    0.21: real time    0.21
    STRESS:  cpu time    0.63: real time    0.63
    FORCOR:  cpu time    0.02: real time    0.02
    FORHAR:  cpu time    0.01: real time    0.01
    MIXING:  cpu time    0.00: real time    0.00
    OFIELD:  cpu time    0.00: real time    0.00

  FORCE on cell =-STRESS in cart. coord.  units (eV):
  Direction    XX          YY          ZZ          XY          YZ          ZX
  --------------------------------------------------------------------------------------
  Alpha Z   148.22876   148.22876   148.22876
  Ewald   -1033.14450 -1033.14450 -1033.14450     0.00000     0.00000     0.00000
  Hartree   389.37968   389.37968   389.37968     0.00000     0.00000     0.00000
  E(xc)    -264.52663  -264.52663  -264.52663     0.00000     0.00000     0.00000
  Local     -16.31131   -16.31131   -16.31131     0.00000     0.00000     0.00000
  n-local    35.71118    37.01462    35.42413    -1.29754    -1.18203    -0.49071
  augment    32.69185    32.69185    32.69183     0.00000    -0.00001    -0.00001
  Kinetic   697.66910   708.67155   710.68267    -2.79777    -2.74019    -1.09704
  Fock        0.00000     0.00000     0.00000     0.00000     0.00000     0.00000
  -------------------------------------------------------------------------------------
  Total      -1.95774    -1.95774    -1.95774     0.00000     0.00000     0.00000
  in kB     -21.89751   -21.89751   -21.89751     0.00000     0.00000     0.00000
  external pressure =      -21.90 kB  Pullay stress =        0.00 kB


 VOLUME and BASIS-vectors are now :
 -----------------------------------------------------------------------------
  energy-cutoff  :      525.11
  volume of cell :      143.24
      direct lattice vectors                 reciprocal lattice vectors
     5.232272927  0.000000000  0.000000000     0.191121529  0.000000000  0.000000000
     0.000000000  5.232272927  0.000000000     0.000000000  0.191121529  0.000000000
     0.000000000  0.000000000  5.232272927     0.000000000  0.000000000  0.191121529

  length of vectors
     5.232272927  5.232272927  5.232272927     0.191121529  0.191121529  0.191121529


 FORCES acting on ions
    electron-ion (+dipol)            ewald-force                    non-local-force                 convergence-correction
 -----------------------------------------------------------------------------------------------
   -.154E-13 -.159E-13 -.224E-13   0.226E-14 0.143E-15 -.930E-14   0.803E-26 0.000E+00 0.485E-26   -.754E-13 -.828E-13 -.673E-13
   -.157E-13 -.403E-13 -.452E-13   0.221E-14 0.107E-13 -.815E-15   0.194E-25 0.000E+00 -.646E-26   -.817E-13 0.491E-13 0.721E-13
   -.405E-13 -.176E-13 -.507E-12   0.106E-13 0.255E-14 -.773E-15   0.323E-26 -.646E-26 0.646E-26   0.519E-13 -.946E-13 0.549E-13
   -.417E-13 0.159E-11 -.279E-11   0.105E-13 0.131E-13 -.226E-14   0.323E-26 -.646E-26 0.485E-26   0.598E-13 0.458E-13 -.670E-13
   0.632E-13 0.358E-14 -.784E-13   -.870E-14 -.740E-14 -.989E-16   0.129E-25 0.517E-25 -.103E-24   0.355E-13 -.495E-13 -.489E-13
   0.640E-13 0.748E-12 0.655E-12   -.888E-14 -.680E-14 0.517E-14   -.129E-25 0.000E+00 0.103E-24   0.357E-13 0.427E-13 0.401E-13
   0.179E-13 0.130E-13 0.676E-13   -.428E-14 -.608E-14 0.517E-14   -.517E-25 -.103E-24 0.000E+00   -.505E-13 -.498E-13 0.410E-13
   0.176E-13 0.588E-13 0.212E-13   -.446E-14 -.547E-14 0.295E-14   0.145E-25 -.107E-24 0.517E-25   -.503E-13 0.391E-13 -.522E-13
 -----------------------------------------------------------------------------------------------
   0.494E-13 0.234E-11 -.269E-11   -.776E-15 0.780E-15 0.382E-16   -.328E-26 -.171E-24 0.614E-25   -.750E-13 -.100E-12 -.274E-13
 
 
 POSITION                                       TOTAL-FORCE (eV/Angst)
 -----------------------------------------------------------------------------------
      0.00000      0.00000      0.00000         0.000000      0.000000      0.000000
      0.00000      2.61614      2.61614         0.000000      0.000000      0.000000
      2.61614      0.00000      2.61614         0.000000      0.000000      0.000000
      2.61614      2.61614      0.00000         0.000000      0.000000      0.000000
      2.61614      0.00000      0.00000         0.000000      0.000000      0.000000
      2.61614      2.61614      2.61614         0.000000      0.000000      0.000000
      0.00000      0.00000      2.61614         0.000000      0.000000      0.000000
      0.00000      2.61614      0.00000         0.000000      0.000000      0.000000
 -----------------------------------------------------------------------------------
    total drift:                                0.000000      0.000000      0.000000


--------------------------------------------------------------------------------------------------------



  FREE ENERGIE OF THE ION-ELECTRON SYSTEM (eV)
  ---------------------------------------------------
  free  energy   TOTEN  =       -36.20411446 eV

  energy  without entropy=      -36.20411446  energy(sigma->0) =      -36.20411446
 


--------------------------------------------------------------------------------------------------------


    POTLOK:  cpu time    0.05: real time    0.05


--------------------------------------------------------------------------------------------------------




--------------------------------------------------------------------------------------------------------


  
 reached required accuracy - stopping structural energy minimisation
     LOOP+:  cpu time    6.71: real time    6.76
    4ORBIT:  cpu time    0.00: real time    0.00

 total amount of memory used by VASP on root node    39070. kBytes
========================================================================

   base      :      30000. kBytes
   nonl-proj :       1748. kBytes
   fftplans  :       4155. kBytes
   grid      :       1976. kBytes
   one-center:         16. kBytes
   wavefun   :       1175. kBytes
 
  
  
 General timing and accounting informations for this job:
 ========================================================
  
                  Total CPU time used (sec):        7.941
                            User time (sec):        6.809
                          System time (sec):        1.132
                         Elapsed time (sec):        8.214
  
                   Maximum memory used (kb):       72340.
                   Average memory used (kb):           0.
  
                          Minor page faults:       278586
                          Major page faults:            0
                 Voluntary context switches:         2035
