<?xml version="1.0" encoding="ISO-8859-1"?>
<modeling>
 <generator>
  <i name="program" type="string">vasp </i>
  <i name="version" type="string">5.3.5  </i>
  <i name="subversion" type="string">31Mar14 (build Nov 07 2014 11:36:17) complex                          parallel </i>
  <i name="platform" type="string">LinuxIFC </i>
  <i name="date" type="string">2015 10 15 </i>
  <i name="time" type="string">01:06:01 </i>
 </generator>
 <incar>
  <i type="string" name="PREC">accurate</i>
  <i type="int" name="IALGO">    38</i>
  <i type="logical" name="ADDGRID"> T  </i>
  <i type="int" name="NELMIN">     5</i>
  <i type="int" name="IBRION">     2</i>
  <i name="EDIFF">      0.00000001</i>
  <i name="EDIFFG">     -0.00000001</i>
  <i type="int" name="NSW">    20</i>
  <i type="int" name="ISIF">     4</i>
  <i name="ENCUT">    525.10770000</i>
  <i type="logical" name="LREAL"> F  </i>
  <i type="int" name="ISMEAR">     0</i>
  <i name="SIGMA">      0.01000000</i>
  <i type="logical" name="LWAVE"> F  </i>
  <i type="logical" name="LCHARG"> F  </i>
  <i type="string" name="GGA"> PS</i>
 </incar>
 <kpoints>
  <generation param="Gamma">
   <v type="int" name="divisions">       4        4        4 </v>
   <v name="usershift">      0.00000000       0.00000000       0.00000000 </v>
   <v name="genvec1">      0.25000000       0.00000000       0.00000000 </v>
   <v name="genvec2">      0.00000000       0.25000000       0.00000000 </v>
   <v name="genvec3">      0.00000000       0.00000000       0.25000000 </v>
   <v name="shift">      0.00000000       0.00000000       0.00000000 </v>
  </generation>
  <varray name="kpointlist" >
   <v>       0.00000000       0.00000000       0.00000000 </v>
   <v>       0.25000000       0.00000000       0.00000000 </v>
   <v>       0.50000000       0.00000000       0.00000000 </v>
   <v>       0.25000000       0.25000000       0.00000000 </v>
   <v>       0.50000000       0.25000000       0.00000000 </v>
   <v>       0.50000000       0.50000000       0.00000000 </v>
   <v>       0.25000000       0.25000000       0.25000000 </v>
   <v>       0.50000000       0.25000000       0.25000000 </v>
   <v>       0.50000000       0.50000000       0.25000000 </v>
   <v>       0.50000000       0.50000000       0.50000000 </v>
  </varray>
  <varray name="weights" >
   <v>       0.01562500 </v>
   <v>       0.09375000 </v>
   <v>       0.04687500 </v>
   <v>       0.18750000 </v>
   <v>       0.18750000 </v>
   <v>       0.04687500 </v>
   <v>       0.12500000 </v>
   <v>       0.18750000 </v>
   <v>       0.09375000 </v>
   <v>       0.01562500 </v>
  </varray>
 </kpoints>
 <parameters>
  <separator name="general" >
   <i type="string" name="SYSTEM">unknown system</i>
   <i type="logical" name="LCOMPAT"> F  </i>
  </separator>
  <separator name="electronic" >
   <i type="string" name="PREC">accura</i>
   <i name="ENMAX">    525.10770000</i>
   <i name="ENAUG">    758.78000000</i>
   <i name="EDIFF">      0.00000001</i>
   <i type="int" name="IALGO">    38</i>
   <i type="int" name="IWAVPR">    11</i>
   <i type="int" name="NBANDS">    36</i>
   <i name="NELECT">     56.00000000</i>
   <i type="int" name="TURBO">     0</i>
   <i type="int" name="IRESTART">     0</i>
   <i type="int" name="NREBOOT">     0</i>
   <i type="int" name="NMIN">     0</i>
   <i name="EREF">      0.00000000</i>
   <separator name="electronic smearing" >
    <i type="int" name="ISMEAR">     0</i>
    <i name="SIGMA">      0.01000000</i>
    <i name="KSPACING">      0.50000000</i>
    <i type="logical" name="KGAMMA"> T  </i>
   </separator>
   <separator name="electronic projectors" >
    <i type="logical" name="LREAL"> F  </i>
    <v name="ROPT">      0.00000000      0.00000000</v>
    <i type="int" name="LMAXPAW">  -100</i>
    <i type="int" name="LMAXMIX">     2</i>
    <i type="logical" name="NLSPLINE"> F  </i>
   </separator>
   <separator name="electronic startup" >
    <i type="int" name="ISTART">     0</i>
    <i type="int" name="ICHARG">     2</i>
    <i type="int" name="INIWAV">     1</i>
   </separator>
   <separator name="electronic spin" >
    <i type="int" name="ISPIN">     1</i>
    <i type="logical" name="LNONCOLLINEAR"> F  </i>
    <v name="MAGMOM">      1.00000000      1.00000000      1.00000000      1.00000000      1.00000000      1.00000000      1.00000000      1.00000000</v>
    <i name="NUPDOWN">     -1.00000000</i>
    <i type="logical" name="LSORBIT"> F  </i>
    <v name="SAXIS">      0.00000000      0.00000000      1.00000000</v>
    <i type="logical" name="LSPIRAL"> F  </i>
    <v name="QSPIRAL">      0.00000000      0.00000000      0.00000000</v>
    <i type="logical" name="LZEROZ"> F  </i>
   </separator>
   <separator name="electronic exchange-correlation" >
    <i type="logical" name="LASPH"> F  </i>
    <i type="logical" name="LMETAGGA"> F  </i>
   </separator>
   <separator name="electronic convergence" >
    <i type="int" name="NELM">    60</i>
    <i type="int" name="NELMDL">    -5</i>
    <i type="int" name="NELMIN">     5</i>
    <i name="ENINI">    525.10770000</i>
    <separator name="electronic convergence detail" >
     <i type="logical" name="LDIAG"> T  </i>
     <i type="logical" name="LSUBROT"> F  </i>
     <i name="WEIMIN">      0.00100000</i>
     <i name="EBREAK">      0.00000000</i>
     <i name="DEPER">      0.30000000</i>
     <i type="int" name="NRMM">     4</i>
     <i name="TIME">      0.40000000</i>
    </separator>
   </separator>
   <separator name="electronic mixer" >
    <i name="AMIX">      0.40000000</i>
    <i name="BMIX">      1.00000000</i>
    <i name="AMIN">      0.10000000</i>
    <i name="AMIX_MAG">      1.60000000</i>
    <i name="BMIX_MAG">      1.00000000</i>
    <separator name="electronic mixer details" >
     <i type="int" name="IMIX">     4</i>
     <i type="int" name="MAXMIX">   -45</i>
     <i name="WC">    100.00000000</i>
     <i type="int" name="INIMIX">     1</i>
     <i type="int" name="MIXPRE">     1</i>
     <i type="int" name="MREMOVE">     5</i>
    </separator>
   </separator>
   <separator name="electronic dipolcorrection" >
    <i type="logical" name="LDIPOL"> F  </i>
    <i type="logical" name="LMONO"> F  </i>
    <i type="int" name="IDIPOL">     0</i>
    <i name="EPSILON">      1.00000000</i>
    <v name="DIPOL">   -100.00000000   -100.00000000   -100.00000000</v>
    <i name="EFIELD">      0.00000000</i>
   </separator>
  </separator>
  <separator name="grids" >
   <i type="int" name="NGX">    40</i>
   <i type="int" name="NGY">    40</i>
   <i type="int" name="NGZ">    40</i>
   <i type="int" name="NGXF">    80</i>
   <i type="int" name="NGYF">    80</i>
   <i type="int" name="NGZF">    80</i>
   <i type="logical" name="ADDGRID"> T  </i>
  </separator>
  <separator name="ionic" >
   <i type="int" name="NSW">    20</i>
   <i type="int" name="IBRION">     2</i>
   <i type="int" name="ISIF">     4</i>
   <i name="PSTRESS">      0.00000000</i>
   <i name="EDIFFG">     -0.00000001</i>
   <i type="int" name="NFREE">     1</i>
   <i name="POTIM">      0.50000000</i>
   <i name="SMASS">     -3.00000000</i>
   <i name="SCALEE">      1.00000000</i>
  </separator>
  <separator name="ionic md" >
   <i name="TEBEG">      0.00010000</i>
   <i name="TEEND">      0.00010000</i>
   <i type="int" name="NBLOCK">     1</i>
   <i type="int" name="KBLOCK">    20</i>
   <i type="int" name="NPACO">   256</i>
   <i name="APACO">     16.00000000</i>
  </separator>
  <separator name="symmetry" >
   <i type="int" name="ISYM">     2</i>
   <i name="SYMPREC">      0.00001000</i>
  </separator>
  <separator name="dos" >
   <i type="logical" name="LORBIT"> F  </i>
   <v name="RWIGS">     -1.00000000     -1.00000000</v>
   <i type="int" name="NEDOS">   301</i>
   <i name="EMIN">     10.00000000</i>
   <i name="EMAX">    -10.00000000</i>
   <i name="EFERMI">      0.00000000</i>
  </separator>
  <separator name="writing" >
   <i type="int" name="NWRITE">     2</i>
   <i type="logical" name="LWAVE"> F  </i>
   <i type="logical" name="LCHARG"> F  </i>
   <i type="logical" name="LPARD"> F  </i>
   <i type="logical" name="LVTOT"> F  </i>
   <i type="logical" name="LVHAR"> F  </i>
   <i type="logical" name="LELF"> F  </i>
   <i type="logical" name="LOPTICS"> F  </i>
   <v name="STM">      0.00000000      0.00000000      0.00000000      0.00000000      0.00000000      0.00000000      0.00000000</v>
  </separator>
  <separator name="performance" >
   <i type="int" name="NPAR">     4</i>
   <i type="int" name="NSIM">     4</i>
   <i type="int" name="NBLK">    -1</i>
   <i type="logical" name="LPLANE"> T  </i>
   <i type="logical" name="LSCALAPACK"> T  </i>
   <i type="logical" name="LSCAAWARE"> F  </i>
   <i type="logical" name="LSCALU"> F  </i>
   <i type="logical" name="LASYNC"> F  </i>
   <i type="logical" name="LORBITALREAL"> F  </i>
  </separator>
  <separator name="miscellaneous" >
   <i type="int" name="IDIOT">     3</i>
   <i type="logical" name="LMUSIC"> F  </i>
   <v name="POMASS">     24.30500000     32.06600000</v>
   <v name="DARWINR">      0.00000000      0.00000000</v>
   <v name="DARWINV">      1.00000000      1.00000000</v>
   <i type="logical" name="LCORR"> T  </i>
  </separator>
  <i type="logical" name="GGA_COMPAT"> T  </i>
  <i type="logical" name="LBERRY"> F  </i>
  <i type="int" name="ICORELEVEL">     0</i>
  <i type="logical" name="LDAU"> F  </i>
  <i type="int" name="I_CONSTRAINED_M">     0</i>
  <separator name="electronic exchange-correlation" >
   <i type="string" name="GGA">PS</i>
   <i type="int" name="VOSKOWN">     0</i>
   <i type="logical" name="LHFCALC"> F  </i>
   <i type="string" name="PRECFOCK"></i>
   <i type="logical" name="LSYMGRAD"> F  </i>
   <i type="logical" name="LHFONE"> F  </i>
   <i type="logical" name="LRHFCALC"> F  </i>
   <i type="logical" name="LTHOMAS"> F  </i>
   <i type="logical" name="LMODELHF"> F  </i>
   <i name="ENCUT4O">     -1.00000000</i>
   <i type="int" name="EXXOEP">     0</i>
   <i type="int" name="FOURORBIT">     0</i>
   <i name="AEXX">      0.00000000</i>
   <i name="HFALPHA">      0.00000000</i>
   <i name="MCALPHA">      0.00000000</i>
   <i name="ALDAX">      1.00000000</i>
   <i name="AGGAX">      1.00000000</i>
   <i name="ALDAC">      1.00000000</i>
   <i name="AGGAC">      1.00000000</i>
   <i type="int" name="NKREDX">     1</i>
   <i type="int" name="NKREDY">     1</i>
   <i type="int" name="NKREDZ">     1</i>
   <i type="logical" name="SHIFTRED"> F  </i>
   <i type="logical" name="ODDONLY"> F  </i>
   <i type="logical" name="EVENONLY"> F  </i>
   <i type="int" name="LMAXFOCK">     0</i>
   <i type="int" name="NMAXFOCKAE">     0</i>
   <i type="logical" name="LFOCKAEDFT"> F  </i>
   <i name="HFSCREEN">      0.00000000</i>
   <i name="HFSCREENC">      0.00000000</i>
   <i type="int" name="NBANDSGWLOW">     0</i>
  </separator>
  <separator name="vdW DFT" >
   <i type="logical" name="LUSE_VDW"> F  </i>
   <i name="Zab_VDW">     -0.84910000</i>
   <i name="PARAM1">      0.12340000</i>
   <i name="PARAM2">      1.00000000</i>
   <i name="PARAM3">      0.00000000</i>
  </separator>
  <separator name="model GW" >
   <i type="int" name="MODEL_GW">     0</i>
   <i name="MODEL_EPS0">     10.74316961</i>
   <i name="MODEL_ALPHA">      1.00000000</i>
  </separator>
  <separator name="linear response parameters" >
   <i type="logical" name="LEPSILON"> F  </i>
   <i type="logical" name="LRPA"> F  </i>
   <i type="logical" name="LNABLA"> F  </i>
   <i type="logical" name="LVEL"> F  </i>
   <i type="int" name="KINTER">     0</i>
   <i name="CSHIFT">      0.10000000</i>
   <i name="OMEGAMAX">     -1.00000000</i>
   <i name="DEG_THRESHOLD">      0.00200000</i>
  </separator>
  <separator name="orbital magnetization" >
   <i type="logical" name="NUCIND"> F  </i>
   <v name="MAGPOS">      0.00000000      0.00000000      0.00000000</v>
   <i type="logical" name="LNICSALL"> T  </i>
   <i type="logical" name="ORBITALMAG"> F  </i>
   <i type="logical" name="LMAGBLOCH"> F  </i>
   <i type="logical" name="LCHIMAG"> F  </i>
   <i type="logical" name="LGAUGE"> T  </i>
   <i type="int" name="MAGATOM">     0</i>
   <v name="MAGDIPOL">      0.00000000      0.00000000      0.00000000</v>
   <v name="AVECCONST">      0.00000000      0.00000000      0.00000000</v>
  </separator>
  <separator name="response functions" >
   <i type="logical" name="LADDER"> F  </i>
   <i type="logical" name="LFXC"> F  </i>
   <i type="logical" name="LHARTREE"> T  </i>
   <i type="int" name="IBSE">     0</i>
   <i type="logical" name="LTCTE"> F  </i>
   <i type="logical" name="LTETE"> F  </i>
   <i type="logical" name="LTRIPLET"> F  </i>
   <i type="logical" name="LFXCEPS"> F  </i>
   <i type="logical" name="LFXHEG"> F  </i>
   <i type="logical" name="L2ORDER"> F  </i>
   <i type="logical" name="LUSEW"> F  </i>
   <i name="ENCUTGW">     -2.00000000</i>
   <i name="ENCUTGWSOFT">     -2.00000000</i>
   <i name="ENCUTLF">     -1.00000000</i>
   <i type="int" name="LMAXMP2">    -1</i>
   <i name="SCISSOR">      0.00000000</i>
   <i type="int" name="NOMEGA">     0</i>
   <i type="int" name="NOMEGAR">     0</i>
   <i type="int" name="NBANDSGW">    -1</i>
   <i type="int" name="NBANDSO">    -1</i>
   <i type="int" name="NBANDSV">    -1</i>
   <i type="int" name="NELM">     1</i>
   <i type="int" name="DIM">     3</i>
   <i type="int" name="ANTIRES">     0</i>
   <i name="OMEGAMAX">    -30.00000000</i>
   <i name="OMEGAMIN">    -30.00000000</i>
   <i name="OMEGATL">   -200.00000000</i>
   <i type="int" name="OMEGAGRID">     0</i>
   <i name="CSHIFT">     -0.10000000</i>
   <i type="logical" name="SELFENERGY"> F  </i>
   <i type="logical" name="LSPECTRAL"> F  </i>
   <i type="logical" name="ODDONLYGW"> F  </i>
   <i type="logical" name="EVENONLYGW"> F  </i>
   <i type="int" name="NKREDLFX">     1</i>
   <i type="int" name="NKREDLFY">     1</i>
   <i type="int" name="NKREDLFZ">     1</i>
   <i type="int" name="MAXMEM">  1800</i>
   <i type="int" name="TELESCOPE">     0</i>
   <i type="int" name="TAUPAR">     1</i>
  </separator>
  <separator name="External order field" >
   <i name="OFIELD_KAPPA">      0.00000000</i>
   <v name="OFIELD_K">      0.00000000      0.00000000      0.00000000</v>
   <i name="OFIELD_Q6_NEAR">      0.00000000</i>
   <i name="OFIELD_Q6_FAR">      0.00000000</i>
   <i name="OFIELD_A">      0.00000000</i>
  </separator>
 </parameters>
 <atominfo>
  <atoms>       8 </atoms>
  <types>       2 </types>
  <array name="atoms" >
   <dimension dim="1">ion</dimension>
   <field type="string">element</field>
   <field type="int">atomtype</field>
   <set>
    <rc><c>Mg</c><c>   1</c></rc>
    <rc><c>Mg</c><c>   1</c></rc>
    <rc><c>Mg</c><c>   1</c></rc>
    <rc><c>Mg</c><c>   1</c></rc>
    <rc><c>S </c><c>   2</c></rc>
    <rc><c>S </c><c>   2</c></rc>
    <rc><c>S </c><c>   2</c></rc>
    <rc><c>S </c><c>   2</c></rc>
   </set>
  </array>
  <array name="atomtypes" >
   <dimension dim="1">type</dimension>
   <field type="int">atomspertype</field>
   <field type="string">element</field>
   <field>mass</field>
   <field>valence</field>
   <field type="string">pseudopotential</field>
   <set>
    <rc><c>   4</c><c>Mg</c><c>     24.30500000</c><c>      8.00000000</c><c>  PAW_PBE Mg_pv 13Apr2007               </c></rc>
    <rc><c>   4</c><c>S </c><c>     32.06600000</c><c>      6.00000000</c><c>  PAW_PBE S 06Sep2000                   </c></rc>
   </set>
  </array>
 </atominfo>
 <structure name="initialpos" >
  <crystal>
   <varray name="basis" >
    <v>       5.23227293       0.00000000       0.00000000 </v>
    <v>       0.00000000       5.23227293       0.00000000 </v>
    <v>       0.00000000       0.00000000       5.23227293 </v>
   </varray>
   <i name="volume">    143.24226150 </i>
   <varray name="rec_basis" >
    <v>       0.19112153       0.00000000       0.00000000 </v>
    <v>       0.00000000       0.19112153       0.00000000 </v>
    <v>       0.00000000       0.00000000       0.19112153 </v>
   </varray>
  </crystal>
  <varray name="positions" >
   <v>       0.00000000       0.00000000       0.00000000 </v>
   <v>       0.00000000       0.50000000       0.50000000 </v>
   <v>       0.50000000       0.00000000       0.50000000 </v>
   <v>       0.50000000       0.50000000       0.00000000 </v>
   <v>       0.50000000       0.00000000       0.00000000 </v>
   <v>       0.50000000       0.50000000       0.50000000 </v>
   <v>       0.00000000       0.00000000       0.50000000 </v>
   <v>       0.00000000       0.50000000       0.00000000 </v>
  </varray>
 </structure>
 <calculation>
  <scstep>
   <time name="dav">    0.30    0.30</time>
   <time name="total">    0.35    0.36</time>
   <energy>
    <i name="alphaZ">    148.22875898 </i>
    <i name="ewald">  -3099.42877140 </i>
    <i name="hartreedc">  -1177.66224828 </i>
    <i name="XCdc">    158.94264286 </i>
    <i name="pawpsdc">   3462.71711756 </i>
    <i name="pawaedc">  -3919.80126840 </i>
    <i name="eentropy">     -0.00033126 </i>
    <i name="bandstr">   -433.50652470 </i>
    <i name="atom">   5321.70543053 </i>
    <i name="e_fr_energy">    461.19480589 </i>
    <i name="e_wo_entrp">    461.19513715 </i>
    <i name="e_0_energy">    461.19497152 </i>
   </energy>
  </scstep>
  <scstep>
   <time name="dav">    0.27    0.27</time>
   <time name="total">    0.27    0.28</time>
   <energy>
    <i name="e_fr_energy">     -2.77034905 </i>
    <i name="e_wo_entrp">     -2.77034905 </i>
    <i name="e_0_energy">     -2.77034905 </i>
   </energy>
  </scstep>
  <scstep>
   <time name="dav">    0.26    0.26</time>
   <time name="total">    0.26    0.27</time>
   <energy>
    <i name="e_fr_energy">    -36.55700045 </i>
    <i name="e_wo_entrp">    -36.55700045 </i>
    <i name="e_0_energy">    -36.55700045 </i>
   </energy>
  </scstep>
  <scstep>
   <time name="dav">    0.27    0.27</time>
   <time name="total">    0.27    0.28</time>
   <energy>
    <i name="e_fr_energy">    -37.69690307 </i>
    <i name="e_wo_entrp">    -37.69690307 </i>
    <i name="e_0_energy">    -37.69690307 </i>
   </energy>
  </scstep>
  <scstep>
   <time name="dav">    0.27    0.27</time>
   <time name="total">    0.33    0.33</time>
   <energy>
    <i name="e_fr_energy">    -37.72471325 </i>
    <i name="e_wo_entrp">    -37.72471325 </i>
    <i name="e_0_energy">    -37.72471325 </i>
   </energy>
  </scstep>
  <scstep>
   <time name="dav">    0.25    0.25</time>
   <time name="total">    0.35    0.35</time>
   <energy>
    <i name="e_fr_energy">    -36.37246324 </i>
    <i name="e_wo_entrp">    -36.37246324 </i>
    <i name="e_0_energy">    -36.37246324 </i>
   </energy>
  </scstep>
  <scstep>
   <time name="dav">    0.28    0.28</time>
   <time name="total">    0.38    0.38</time>
   <energy>
    <i name="e_fr_energy">    -36.21249132 </i>
    <i name="e_wo_entrp">    -36.21249132 </i>
    <i name="e_0_energy">    -36.21249132 </i>
   </energy>
  </scstep>
  <scstep>
   <time name="dav">    0.25    0.25</time>
   <time name="total">    0.36    0.36</time>
   <energy>
    <i name="e_fr_energy">    -36.20496119 </i>
    <i name="e_wo_entrp">    -36.20496119 </i>
    <i name="e_0_energy">    -36.20496119 </i>
   </energy>
  </scstep>
  <scstep>
   <time name="dav">    0.30    0.30</time>
   <time name="total">    0.40    0.40</time>
   <energy>
    <i name="e_fr_energy">    -36.20409416 </i>
    <i name="e_wo_entrp">    -36.20409416 </i>
    <i name="e_0_energy">    -36.20409416 </i>
   </energy>
  </scstep>
  <scstep>
   <time name="dav">    0.28    0.28</time>
   <time name="total">    0.39    0.39</time>
   <energy>
    <i name="e_fr_energy">    -36.20411883 </i>
    <i name="e_wo_entrp">    -36.20411883 </i>
    <i name="e_0_energy">    -36.20411883 </i>
   </energy>
  </scstep>
  <scstep>
   <time name="dav">    0.26    0.26</time>
   <time name="total">    0.37    0.37</time>
   <energy>
    <i name="e_fr_energy">    -36.20411541 </i>
    <i name="e_wo_entrp">    -36.20411541 </i>
    <i name="e_0_energy">    -36.20411541 </i>
   </energy>
  </scstep>
  <scstep>
   <time name="dav">    0.26    0.26</time>
   <time name="total">    0.37    0.37</time>
   <energy>
    <i name="e_fr_energy">    -36.20411454 </i>
    <i name="e_wo_entrp">    -36.20411454 </i>
    <i name="e_0_energy">    -36.20411454 </i>
   </energy>
  </scstep>
  <scstep>
   <time name="dav">    0.28    0.28</time>
   <time name="total">    0.38    0.39</time>
   <energy>
    <i name="e_fr_energy">    -36.20411445 </i>
    <i name="e_wo_entrp">    -36.20411445 </i>
    <i name="e_0_energy">    -36.20411445 </i>
   </energy>
  </scstep>
  <scstep>
   <time name="dav">    0.26    0.26</time>
   <time name="total">    0.36    0.37</time>
   <energy>
    <i name="e_fr_energy">    -36.20411443 </i>
    <i name="e_wo_entrp">    -36.20411443 </i>
    <i name="e_0_energy">    -36.20411443 </i>
   </energy>
  </scstep>
  <scstep>
   <time name="dav">    0.23    0.23</time>
   <time name="total">    0.34    0.34</time>
   <energy>
    <i name="e_fr_energy">    -36.20411447 </i>
    <i name="e_wo_entrp">    -36.20411447 </i>
    <i name="e_0_energy">    -36.20411447 </i>
   </energy>
  </scstep>
  <scstep>
   <time name="dav">    0.17    0.17</time>
   <time name="total">    0.27    0.28</time>
   <energy>
    <i name="e_fr_energy">    -36.20411446 </i>
    <i name="e_wo_entrp">    -36.20411446 </i>
    <i name="e_0_energy">    -36.20411446 </i>
   </energy>
  </scstep>
  <scstep>
   <time name="dav">    0.17    0.17</time>
   <time name="total">    0.21    0.22</time>
   <energy>
    <i name="alphaZ">    148.22875898 </i>
    <i name="ewald">  -3099.42877140 </i>
    <i name="hartreedc">  -1168.13905967 </i>
    <i name="XCdc">    160.96444552 </i>
    <i name="pawpsdc">   4599.54951712 </i>
    <i name="pawaedc">  -5052.20225811 </i>
    <i name="eentropy">      0.00000000 </i>
    <i name="bandstr">   -946.88217743 </i>
    <i name="atom">   5321.70543053 </i>
    <i name="e_fr_energy">    -36.20411446 </i>
    <i name="e_wo_entrp">    -36.20411446 </i>
    <i name="e_0_energy">    -36.20411446 </i>
   </energy>
  </scstep>
  <structure>
   <crystal>
    <varray name="basis" >
     <v>       5.23227293       0.00000000       0.00000000 </v>
     <v>       0.00000000       5.23227293       0.00000000 </v>
     <v>       0.00000000       0.00000000       5.23227293 </v>
    </varray>
    <i name="volume">    143.24226150 </i>
    <varray name="rec_basis" >
     <v>       0.19112153       0.00000000       0.00000000 </v>
     <v>       0.00000000       0.19112153       0.00000000 </v>
     <v>       0.00000000       0.00000000       0.19112153 </v>
    </varray>
   </crystal>
   <varray name="positions" >
    <v>       0.00000000       0.00000000       0.00000000 </v>
    <v>       0.00000000       0.50000000       0.50000000 </v>
    <v>       0.50000000       0.00000000       0.50000000 </v>
    <v>       0.50000000       0.50000000       0.00000000 </v>
    <v>       0.50000000       0.00000000       0.00000000 </v>
    <v>       0.50000000       0.50000000       0.50000000 </v>
    <v>       0.00000000       0.00000000       0.50000000 </v>
    <v>       0.00000000       0.50000000       0.00000000 </v>
   </varray>
  </structure>
  <varray name="forces" >
   <v>       0.00000000       0.00000000       0.00000000 </v>
   <v>       0.00000000       0.00000000       0.00000000 </v>
   <v>       0.00000000       0.00000000       0.00000000 </v>
   <v>       0.00000000       0.00000000       0.00000000 </v>
   <v>       0.00000000       0.00000000       0.00000000 </v>
   <v>       0.00000000       0.00000000       0.00000000 </v>
   <v>       0.00000000       0.00000000       0.00000000 </v>
   <v>       0.00000000       0.00000000       0.00000000 </v>
  </varray>
  <varray name="stress" >
   <v>     -21.89751039       0.00000000       0.00000000 </v>
   <v>       0.00000000     -21.89751039       0.00000000 </v>
   <v>       0.00000000       0.00000000     -21.89751039 </v>
  </varray>
  <energy>
   <i name="e_fr_energy">    -36.20411446 </i>
   <i name="e_wo_entrp">    -36.20411446 </i>
   <i name="e_0_energy">      0.00000000 </i>
  </energy>
  <time name="totalsc">    6.71    6.76</time>
  <eigenvalues>
   <array>
    <dimension dim="1">band</dimension>
    <dimension dim="2">kpoint</dimension>
    <dimension dim="3">spin</dimension>
    <field>eigene</field>
    <field>occ</field>
    <set>
     <set comment="spin 1">
      <set comment="kpoint 1">
       <r>  -37.9618    1.0000 </r>
       <r>  -37.9618    1.0000 </r>
       <r>  -37.9618    1.0000 </r>
       <r>  -37.9585    1.0000 </r>
       <r>  -37.9585    1.0000 </r>
       <r>  -37.9585    1.0000 </r>
       <r>  -37.9585    1.0000 </r>
       <r>  -37.9585    1.0000 </r>
       <r>  -37.9585    1.0000 </r>
       <r>  -37.9558    1.0000 </r>
       <r>  -37.9558    1.0000 </r>
       <r>  -37.9558    1.0000 </r>
       <r>   -9.2611    1.0000 </r>
       <r>   -7.6119    1.0000 </r>
       <r>   -7.6119    1.0000 </r>
       <r>   -7.6119    1.0000 </r>
       <r>   -0.8348    1.0000 </r>
       <r>   -0.8348    1.0000 </r>
       <r>   -0.8348    1.0000 </r>
       <r>    1.6628    1.0000 </r>
       <r>    1.6628    1.0000 </r>
       <r>    1.6628    1.0000 </r>
       <r>    1.6628    1.0000 </r>
       <r>    1.6628    1.0000 </r>
       <r>    1.6628    1.0000 </r>
       <r>    3.3305    1.0000 </r>
       <r>    3.3305    1.0000 </r>
       <r>    3.3305    1.0000 </r>
       <r>    6.0057    0.0000 </r>
       <r>    6.0057    0.0000 </r>
       <r>    6.0057    0.0000 </r>
       <r>    6.7974    0.0000 </r>
       <r>    7.6202    0.0000 </r>
       <r>    7.6202    0.0000 </r>
       <r>    7.6202    0.0000 </r>
       <r>   11.1918    0.0000 </r>
      </set>
      <set comment="kpoint 2">
       <r>  -37.9614    1.0000 </r>
       <r>  -37.9614    1.0000 </r>
       <r>  -37.9612    1.0000 </r>
       <r>  -37.9590    1.0000 </r>
       <r>  -37.9590    1.0000 </r>
       <r>  -37.9586    1.0000 </r>
       <r>  -37.9586    1.0000 </r>
       <r>  -37.9582    1.0000 </r>
       <r>  -37.9582    1.0000 </r>
       <r>  -37.9570    1.0000 </r>
       <r>  -37.9563    1.0000 </r>
       <r>  -37.9563    1.0000 </r>
       <r>   -9.0621    1.0000 </r>
       <r>   -7.9108    1.0000 </r>
       <r>   -7.5887    1.0000 </r>
       <r>   -7.5887    1.0000 </r>
       <r>   -0.5854    1.0000 </r>
       <r>   -0.5854    1.0000 </r>
       <r>   -0.3853    1.0000 </r>
       <r>    1.0953    1.0000 </r>
       <r>    1.0953    1.0000 </r>
       <r>    1.2868    1.0000 </r>
       <r>    1.2868    1.0000 </r>
       <r>    1.8524    1.0000 </r>
       <r>    1.8524    1.0000 </r>
       <r>    2.3063    1.0000 </r>
       <r>    3.0087    1.0000 </r>
       <r>    3.0087    1.0000 </r>
       <r>    6.6414    0.0000 </r>
       <r>    7.0245    0.0000 </r>
       <r>    7.0245    0.0000 </r>
       <r>    7.9333    0.0000 </r>
       <r>    7.9588    0.0000 </r>
       <r>    8.7111    0.0000 </r>
       <r>    8.7111    0.0000 </r>
       <r>   10.2209    0.0000 </r>
      </set>
      <set comment="kpoint 3">
       <r>  -37.9602    1.0000 </r>
       <r>  -37.9602    1.0000 </r>
       <r>  -37.9602    1.0000 </r>
       <r>  -37.9602    1.0000 </r>
       <r>  -37.9591    1.0000 </r>
       <r>  -37.9591    1.0000 </r>
       <r>  -37.9587    1.0000 </r>
       <r>  -37.9587    1.0000 </r>
       <r>  -37.9573    1.0000 </r>
       <r>  -37.9573    1.0000 </r>
       <r>  -37.9573    1.0000 </r>
       <r>  -37.9573    1.0000 </r>
       <r>   -8.5336    1.0000 </r>
       <r>   -8.5336    1.0000 </r>
       <r>   -7.5652    1.0000 </r>
       <r>   -7.5652    1.0000 </r>
       <r>    0.1230    1.0000 </r>
       <r>    0.1230    1.0000 </r>
       <r>    0.1230    1.0000 </r>
       <r>    0.1230    1.0000 </r>
       <r>    0.7740    1.0000 </r>
       <r>    0.7740    1.0000 </r>
       <r>    0.9818    1.0000 </r>
       <r>    0.9818    1.0000 </r>
       <r>    2.3693    1.0000 </r>
       <r>    2.3693    1.0000 </r>
       <r>    2.3693    1.0000 </r>
       <r>    2.3693    1.0000 </r>
       <r>    8.2017    0.0000 </r>
       <r>    8.2017    0.0000 </r>
       <r>    8.4799    0.0000 </r>
       <r>    8.4799    0.0000 </r>
       <r>    8.8479    0.0000 </r>
       <r>    8.8479    0.0000 </r>
       <r>   11.1459    0.0000 </r>
       <r>   11.1462    0.0000 </r>
      </set>
      <set comment="kpoint 4">
       <r>  -37.9610    1.0000 </r>
       <r>  -37.9610    1.0000 </r>
       <r>  -37.9609    1.0000 </r>
       <r>  -37.9599    1.0000 </r>
       <r>  -37.9586    1.0000 </r>
       <r>  -37.9586    1.0000 </r>
       <r>  -37.9581    1.0000 </r>
       <r>  -37.9580    1.0000 </r>
       <r>  -37.9580    1.0000 </r>
       <r>  -37.9579    1.0000 </r>
       <r>  -37.9567    1.0000 </r>
       <r>  -37.9561    1.0000 </r>
       <r>   -8.8760    1.0000 </r>
       <r>   -7.8410    1.0000 </r>
       <r>   -7.8410    1.0000 </r>
       <r>   -7.6101    1.0000 </r>
       <r>   -0.4085    1.0000 </r>
       <r>   -0.4085    1.0000 </r>
       <r>   -0.3394    1.0000 </r>
       <r>    0.1620    1.0000 </r>
       <r>    1.3058    1.0000 </r>
       <r>    1.3058    1.0000 </r>
       <r>    1.3756    1.0000 </r>
       <r>    1.7524    1.0000 </r>
       <r>    1.7524    1.0000 </r>
       <r>    1.9818    1.0000 </r>
       <r>    2.6241    1.0000 </r>
       <r>    3.2263    1.0000 </r>
       <r>    7.1313    0.0000 </r>
       <r>    7.5650    0.0000 </r>
       <r>    7.5650    0.0000 </r>
       <r>    8.4835    0.0000 </r>
       <r>    8.9762    0.0000 </r>
       <r>    8.9762    0.0000 </r>
       <r>    9.9100    0.0000 </r>
       <r>   10.4244    0.0000 </r>
      </set>
      <set comment="kpoint 5">
       <r>  -37.9607    1.0000 </r>
       <r>  -37.9607    1.0000 </r>
       <r>  -37.9599    1.0000 </r>
       <r>  -37.9599    1.0000 </r>
       <r>  -37.9598    1.0000 </r>
       <r>  -37.9598    1.0000 </r>
       <r>  -37.9578    1.0000 </r>
       <r>  -37.9578    1.0000 </r>
       <r>  -37.9577    1.0000 </r>
       <r>  -37.9577    1.0000 </r>
       <r>  -37.9568    1.0000 </r>
       <r>  -37.9568    1.0000 </r>
       <r>   -8.3909    1.0000 </r>
       <r>   -8.3909    1.0000 </r>
       <r>   -7.7009    1.0000 </r>
       <r>   -7.7009    1.0000 </r>
       <r>   -0.3573    1.0000 </r>
       <r>   -0.3573    1.0000 </r>
       <r>    0.2601    1.0000 </r>
       <r>    0.2601    1.0000 </r>
       <r>    0.3571    1.0000 </r>
       <r>    0.3571    1.0000 </r>
       <r>    1.8861    1.0000 </r>
       <r>    1.8861    1.0000 </r>
       <r>    1.8911    1.0000 </r>
       <r>    1.8911    1.0000 </r>
       <r>    2.6618    1.0000 </r>
       <r>    2.6618    1.0000 </r>
       <r>    8.4699    0.0000 </r>
       <r>    8.4699    0.0000 </r>
       <r>    8.9838    0.0000 </r>
       <r>    8.9838    0.0000 </r>
       <r>    9.7046    0.0000 </r>
       <r>    9.7046    0.0000 </r>
       <r>   10.2561    0.0000 </r>
       <r>   10.2597    0.0000 </r>
      </set>
      <set comment="kpoint 6">
       <r>  -37.9608    1.0000 </r>
       <r>  -37.9608    1.0000 </r>
       <r>  -37.9608    1.0000 </r>
       <r>  -37.9608    1.0000 </r>
       <r>  -37.9588    1.0000 </r>
       <r>  -37.9588    1.0000 </r>
       <r>  -37.9588    1.0000 </r>
       <r>  -37.9588    1.0000 </r>
       <r>  -37.9569    1.0000 </r>
       <r>  -37.9569    1.0000 </r>
       <r>  -37.9569    1.0000 </r>
       <r>  -37.9569    1.0000 </r>
       <r>   -8.0432    1.0000 </r>
       <r>   -8.0432    1.0000 </r>
       <r>   -8.0432    1.0000 </r>
       <r>   -8.0432    1.0000 </r>
       <r>   -0.3570    1.0000 </r>
       <r>   -0.3570    1.0000 </r>
       <r>   -0.3570    1.0000 </r>
       <r>   -0.3570    1.0000 </r>
       <r>    1.0139    1.0000 </r>
       <r>    1.0139    1.0000 </r>
       <r>    1.0139    1.0000 </r>
       <r>    1.0139    1.0000 </r>
       <r>    2.7089    1.0000 </r>
       <r>    2.7089    1.0000 </r>
       <r>    2.7089    1.0000 </r>
       <r>    2.7089    1.0000 </r>
       <r>    8.8855    0.0000 </r>
       <r>    8.8855    0.0000 </r>
       <r>    8.8855    0.0000 </r>
       <r>    8.8855    0.0000 </r>
       <r>   10.7215    0.0000 </r>
       <r>   10.7215    0.0000 </r>
       <r>   10.7217    0.0000 </r>
       <r>   10.7221    0.0000 </r>
      </set>
      <set comment="kpoint 7">
       <r>  -37.9614    1.0000 </r>
       <r>  -37.9614    1.0000 </r>
       <r>  -37.9614    1.0000 </r>
       <r>  -37.9592    1.0000 </r>
       <r>  -37.9586    1.0000 </r>
       <r>  -37.9586    1.0000 </r>
       <r>  -37.9586    1.0000 </r>
       <r>  -37.9577    1.0000 </r>
       <r>  -37.9577    1.0000 </r>
       <r>  -37.9577    1.0000 </r>
       <r>  -37.9564    1.0000 </r>
       <r>  -37.9564    1.0000 </r>
       <r>   -8.7059    1.0000 </r>
       <r>   -7.8099    1.0000 </r>
       <r>   -7.8099    1.0000 </r>
       <r>   -7.8099    1.0000 </r>
       <r>   -0.6910    1.0000 </r>
       <r>   -0.6910    1.0000 </r>
       <r>   -0.6910    1.0000 </r>
       <r>    0.5224    1.0000 </r>
       <r>    1.1366    1.0000 </r>
       <r>    1.1366    1.0000 </r>
       <r>    1.1366    1.0000 </r>
       <r>    2.1381    1.0000 </r>
       <r>    2.1381    1.0000 </r>
       <r>    2.1381    1.0000 </r>
       <r>    3.0133    1.0000 </r>
       <r>    3.0133    1.0000 </r>
       <r>    7.6254    0.0000 </r>
       <r>    7.6254    0.0000 </r>
       <r>    7.6254    0.0000 </r>
       <r>    8.0982    0.0000 </r>
       <r>    9.9466    0.0000 </r>
       <r>    9.9466    0.0000 </r>
       <r>    9.9466    0.0000 </r>
       <r>   11.0525    0.0000 </r>
      </set>
      <set comment="kpoint 8">
       <r>  -37.9616    1.0000 </r>
       <r>  -37.9616    1.0000 </r>
       <r>  -37.9610    1.0000 </r>
       <r>  -37.9610    1.0000 </r>
       <r>  -37.9585    1.0000 </r>
       <r>  -37.9585    1.0000 </r>
       <r>  -37.9575    1.0000 </r>
       <r>  -37.9575    1.0000 </r>
       <r>  -37.9571    1.0000 </r>
       <r>  -37.9571    1.0000 </r>
       <r>  -37.9571    1.0000 </r>
       <r>  -37.9571    1.0000 </r>
       <r>   -8.2735    1.0000 </r>
       <r>   -8.2735    1.0000 </r>
       <r>   -7.7781    1.0000 </r>
       <r>   -7.7781    1.0000 </r>
       <r>   -0.9519    1.0000 </r>
       <r>   -0.9519    1.0000 </r>
       <r>   -0.4115    1.0000 </r>
       <r>   -0.4115    1.0000 </r>
       <r>    1.2052    1.0000 </r>
       <r>    1.2052    1.0000 </r>
       <r>    2.1909    1.0000 </r>
       <r>    2.1909    1.0000 </r>
       <r>    2.4241    1.0000 </r>
       <r>    2.4241    1.0000 </r>
       <r>    2.5477    1.0000 </r>
       <r>    2.5477    1.0000 </r>
       <r>    8.4542    0.0000 </r>
       <r>    8.4542    0.0000 </r>
       <r>    8.7969    0.0000 </r>
       <r>    8.7969    0.0000 </r>
       <r>    9.2836    0.0000 </r>
       <r>    9.2836    0.0000 </r>
       <r>    9.8356    0.0000 </r>
       <r>    9.8356    0.0000 </r>
      </set>
      <set comment="kpoint 9">
       <r>  -37.9619    1.0000 </r>
       <r>  -37.9619    1.0000 </r>
       <r>  -37.9619    1.0000 </r>
       <r>  -37.9619    1.0000 </r>
       <r>  -37.9577    1.0000 </r>
       <r>  -37.9577    1.0000 </r>
       <r>  -37.9577    1.0000 </r>
       <r>  -37.9577    1.0000 </r>
       <r>  -37.9570    1.0000 </r>
       <r>  -37.9570    1.0000 </r>
       <r>  -37.9570    1.0000 </r>
       <r>  -37.9570    1.0000 </r>
       <r>   -8.0061    1.0000 </r>
       <r>   -8.0061    1.0000 </r>
       <r>   -8.0061    1.0000 </r>
       <r>   -8.0061    1.0000 </r>
       <r>   -1.0558    1.0000 </r>
       <r>   -1.0558    1.0000 </r>
       <r>   -1.0558    1.0000 </r>
       <r>   -1.0558    1.0000 </r>
       <r>    1.9836    1.0000 </r>
       <r>    1.9836    1.0000 </r>
       <r>    1.9836    1.0000 </r>
       <r>    1.9836    1.0000 </r>
       <r>    2.7285    1.0000 </r>
       <r>    2.7285    1.0000 </r>
       <r>    2.7285    1.0000 </r>
       <r>    2.7285    1.0000 </r>
       <r>    8.5096    0.0000 </r>
       <r>    8.5096    0.0000 </r>
       <r>    8.5096    0.0000 </r>
       <r>    8.5096    0.0000 </r>
       <r>    9.7050    0.0000 </r>
       <r>    9.7050    0.0000 </r>
       <r>    9.7050    0.0000 </r>
       <r>    9.7050    0.0000 </r>
      </set>
      <set comment="kpoint 10">
       <r>  -37.9626    1.0000 </r>
       <r>  -37.9626    1.0000 </r>
       <r>  -37.9626    1.0000 </r>
       <r>  -37.9626    1.0000 </r>
       <r>  -37.9569    1.0000 </r>
       <r>  -37.9569    1.0000 </r>
       <r>  -37.9569    1.0000 </r>
       <r>  -37.9569    1.0000 </r>
       <r>  -37.9569    1.0000 </r>
       <r>  -37.9569    1.0000 </r>
       <r>  -37.9569    1.0000 </r>
       <r>  -37.9569    1.0000 </r>
       <r>   -7.9678    1.0000 </r>
       <r>   -7.9678    1.0000 </r>
       <r>   -7.9678    1.0000 </r>
       <r>   -7.9678    1.0000 </r>
       <r>   -1.4768    1.0000 </r>
       <r>   -1.4768    1.0000 </r>
       <r>   -1.4768    1.0000 </r>
       <r>   -1.4768    1.0000 </r>
       <r>    2.7486    1.0000 </r>
       <r>    2.7486    1.0000 </r>
       <r>    2.7486    1.0000 </r>
       <r>    2.7486    1.0000 </r>
       <r>    2.7486    1.0000 </r>
       <r>    2.7486    1.0000 </r>
       <r>    2.7486    1.0000 </r>
       <r>    2.7486    1.0000 </r>
       <r>    7.7077    0.0000 </r>
       <r>    7.7077    0.0000 </r>
       <r>    7.7077    0.0000 </r>
       <r>    7.7077    0.0000 </r>
       <r>   10.1402    0.0000 </r>
       <r>   10.1402    0.0000 </r>
       <r>   10.1402    0.0000 </r>
       <r>   10.1402    0.0000 </r>
      </set>
     </set>
    </set>
   </array>
  </eigenvalues>
  <separator name="orbital magnetization" >
   <v name="MAGDIPOLOUT">      0.00000000      0.00000000      0.00000000</v>
  </separator>
  <dos>
   <i name="efermi">      3.42129205 </i>
   <total>
    <array>
     <dimension dim="1">gridpoints</dimension>
     <dimension dim="2">spin</dimension>
     <field>energy</field>
     <field>total</field>
     <field>integrated</field>
     <set>
      <set comment="spin 1">
       <r>   -40.4203     0.0000     0.0000 </r>
       <r>   -40.2401     0.0000     0.0000 </r>
       <r>   -40.0599     0.0000     0.0000 </r>
       <r>   -39.8796     0.0000     0.0000 </r>
       <r>   -39.6994     0.0000     0.0000 </r>
       <r>   -39.5192     0.0000     0.0000 </r>
       <r>   -39.3389     0.0000     0.0000 </r>
       <r>   -39.1587     0.0000     0.0000 </r>
       <r>   -38.9785     0.0000     0.0000 </r>
       <r>   -38.7982     0.0000     0.0000 </r>
       <r>   -38.6180     0.0000     0.0000 </r>
       <r>   -38.4378     0.0000     0.0000 </r>
       <r>   -38.2575     0.0000     0.0000 </r>
       <r>   -38.0773     0.0000     0.0000 </r>
       <r>   -37.8971   133.1611    24.0000 </r>
       <r>   -37.7168     0.0000    24.0000 </r>
       <r>   -37.5366     0.0000    24.0000 </r>
       <r>   -37.3564     0.0000    24.0000 </r>
       <r>   -37.1761     0.0000    24.0000 </r>
       <r>   -36.9959     0.0000    24.0000 </r>
       <r>   -36.8157     0.0000    24.0000 </r>
       <r>   -36.6354     0.0000    24.0000 </r>
       <r>   -36.4552     0.0000    24.0000 </r>
       <r>   -36.2750     0.0000    24.0000 </r>
       <r>   -36.0947     0.0000    24.0000 </r>
       <r>   -35.9145     0.0000    24.0000 </r>
       <r>   -35.7343     0.0000    24.0000 </r>
       <r>   -35.5540     0.0000    24.0000 </r>
       <r>   -35.3738     0.0000    24.0000 </r>
       <r>   -35.1936     0.0000    24.0000 </r>
       <r>   -35.0133     0.0000    24.0000 </r>
       <r>   -34.8331     0.0000    24.0000 </r>
       <r>   -34.6529     0.0000    24.0000 </r>
       <r>   -34.4726     0.0000    24.0000 </r>
       <r>   -34.2924     0.0000    24.0000 </r>
       <r>   -34.1122     0.0000    24.0000 </r>
       <r>   -33.9319     0.0000    24.0000 </r>
       <r>   -33.7517     0.0000    24.0000 </r>
       <r>   -33.5715     0.0000    24.0000 </r>
       <r>   -33.3913     0.0000    24.0000 </r>
       <r>   -33.2110     0.0000    24.0000 </r>
       <r>   -33.0308     0.0000    24.0000 </r>
       <r>   -32.8506     0.0000    24.0000 </r>
       <r>   -32.6703     0.0000    24.0000 </r>
       <r>   -32.4901     0.0000    24.0000 </r>
       <r>   -32.3099     0.0000    24.0000 </r>
       <r>   -32.1296     0.0000    24.0000 </r>
       <r>   -31.9494     0.0000    24.0000 </r>
       <r>   -31.7692     0.0000    24.0000 </r>
       <r>   -31.5889     0.0000    24.0000 </r>
       <r>   -31.4087     0.0000    24.0000 </r>
       <r>   -31.2285     0.0000    24.0000 </r>
       <r>   -31.0482     0.0000    24.0000 </r>
       <r>   -30.8680     0.0000    24.0000 </r>
       <r>   -30.6878     0.0000    24.0000 </r>
       <r>   -30.5075     0.0000    24.0000 </r>
       <r>   -30.3273     0.0000    24.0000 </r>
       <r>   -30.1471     0.0000    24.0000 </r>
       <r>   -29.9668     0.0000    24.0000 </r>
       <r>   -29.7866     0.0000    24.0000 </r>
       <r>   -29.6064     0.0000    24.0000 </r>
       <r>   -29.4261     0.0000    24.0000 </r>
       <r>   -29.2459     0.0000    24.0000 </r>
       <r>   -29.0657     0.0000    24.0000 </r>
       <r>   -28.8854     0.0000    24.0000 </r>
       <r>   -28.7052     0.0000    24.0000 </r>
       <r>   -28.5250     0.0000    24.0000 </r>
       <r>   -28.3447     0.0000    24.0000 </r>
       <r>   -28.1645     0.0000    24.0000 </r>
       <r>   -27.9843     0.0000    24.0000 </r>
       <r>   -27.8040     0.0000    24.0000 </r>
       <r>   -27.6238     0.0000    24.0000 </r>
       <r>   -27.4436     0.0000    24.0000 </r>
       <r>   -27.2633     0.0000    24.0000 </r>
       <r>   -27.0831     0.0000    24.0000 </r>
       <r>   -26.9029     0.0000    24.0000 </r>
       <r>   -26.7226     0.0000    24.0000 </r>
       <r>   -26.5424     0.0000    24.0000 </r>
       <r>   -26.3622     0.0000    24.0000 </r>
       <r>   -26.1819     0.0000    24.0000 </r>
       <r>   -26.0017     0.0000    24.0000 </r>
       <r>   -25.8215     0.0000    24.0000 </r>
       <r>   -25.6412     0.0000    24.0000 </r>
       <r>   -25.4610     0.0000    24.0000 </r>
       <r>   -25.2808     0.0000    24.0000 </r>
       <r>   -25.1005     0.0000    24.0000 </r>
       <r>   -24.9203     0.0000    24.0000 </r>
       <r>   -24.7401     0.0000    24.0000 </r>
       <r>   -24.5598     0.0000    24.0000 </r>
       <r>   -24.3796     0.0000    24.0000 </r>
       <r>   -24.1994     0.0000    24.0000 </r>
       <r>   -24.0191     0.0000    24.0000 </r>
       <r>   -23.8389     0.0000    24.0000 </r>
       <r>   -23.6587     0.0000    24.0000 </r>
       <r>   -23.4784     0.0000    24.0000 </r>
       <r>   -23.2982     0.0000    24.0000 </r>
       <r>   -23.1180     0.0000    24.0000 </r>
       <r>   -22.9378     0.0000    24.0000 </r>
       <r>   -22.7575     0.0000    24.0000 </r>
       <r>   -22.5773     0.0000    24.0000 </r>
       <r>   -22.3971     0.0000    24.0000 </r>
       <r>   -22.2168     0.0000    24.0000 </r>
       <r>   -22.0366     0.0000    24.0000 </r>
       <r>   -21.8564     0.0000    24.0000 </r>
       <r>   -21.6761     0.0000    24.0000 </r>
       <r>   -21.4959     0.0000    24.0000 </r>
       <r>   -21.3157     0.0000    24.0000 </r>
       <r>   -21.1354     0.0000    24.0000 </r>
       <r>   -20.9552     0.0000    24.0000 </r>
       <r>   -20.7750     0.0000    24.0000 </r>
       <r>   -20.5947     0.0000    24.0000 </r>
       <r>   -20.4145     0.0000    24.0000 </r>
       <r>   -20.2343     0.0000    24.0000 </r>
       <r>   -20.0540     0.0000    24.0000 </r>
       <r>   -19.8738     0.0000    24.0000 </r>
       <r>   -19.6936     0.0000    24.0000 </r>
       <r>   -19.5133     0.0000    24.0000 </r>
       <r>   -19.3331     0.0000    24.0000 </r>
       <r>   -19.1529     0.0000    24.0000 </r>
       <r>   -18.9726     0.0000    24.0000 </r>
       <r>   -18.7924     0.0000    24.0000 </r>
       <r>   -18.6122     0.0000    24.0000 </r>
       <r>   -18.4319     0.0000    24.0000 </r>
       <r>   -18.2517     0.0000    24.0000 </r>
       <r>   -18.0715     0.0000    24.0000 </r>
       <r>   -17.8912     0.0000    24.0000 </r>
       <r>   -17.7110     0.0000    24.0000 </r>
       <r>   -17.5308     0.0000    24.0000 </r>
       <r>   -17.3505     0.0000    24.0000 </r>
       <r>   -17.1703     0.0000    24.0000 </r>
       <r>   -16.9901     0.0000    24.0000 </r>
       <r>   -16.8098     0.0000    24.0000 </r>
       <r>   -16.6296     0.0000    24.0000 </r>
       <r>   -16.4494     0.0000    24.0000 </r>
       <r>   -16.2691     0.0000    24.0000 </r>
       <r>   -16.0889     0.0000    24.0000 </r>
       <r>   -15.9087     0.0000    24.0000 </r>
       <r>   -15.7284     0.0000    24.0000 </r>
       <r>   -15.5482     0.0000    24.0000 </r>
       <r>   -15.3680     0.0000    24.0000 </r>
       <r>   -15.1877     0.0000    24.0000 </r>
       <r>   -15.0075     0.0000    24.0000 </r>
       <r>   -14.8273     0.0000    24.0000 </r>
       <r>   -14.6470     0.0000    24.0000 </r>
       <r>   -14.4668     0.0000    24.0000 </r>
       <r>   -14.2866     0.0000    24.0000 </r>
       <r>   -14.1063     0.0000    24.0000 </r>
       <r>   -13.9261     0.0000    24.0000 </r>
       <r>   -13.7459     0.0000    24.0000 </r>
       <r>   -13.5656     0.0000    24.0000 </r>
       <r>   -13.3854     0.0000    24.0000 </r>
       <r>   -13.2052     0.0000    24.0000 </r>
       <r>   -13.0249     0.0000    24.0000 </r>
       <r>   -12.8447     0.0000    24.0000 </r>
       <r>   -12.6645     0.0000    24.0000 </r>
       <r>   -12.4842     0.0000    24.0000 </r>
       <r>   -12.3040     0.0000    24.0000 </r>
       <r>   -12.1238     0.0000    24.0000 </r>
       <r>   -11.9436     0.0000    24.0000 </r>
       <r>   -11.7633     0.0000    24.0000 </r>
       <r>   -11.5831     0.0000    24.0000 </r>
       <r>   -11.4029     0.0000    24.0000 </r>
       <r>   -11.2226     0.0000    24.0000 </r>
       <r>   -11.0424     0.0000    24.0000 </r>
       <r>   -10.8622     0.0000    24.0000 </r>
       <r>   -10.6819     0.0000    24.0000 </r>
       <r>   -10.5017     0.0000    24.0000 </r>
       <r>   -10.3215     0.0000    24.0000 </r>
       <r>   -10.1412     0.0000    24.0000 </r>
       <r>    -9.9610     0.0000    24.0000 </r>
       <r>    -9.7808     0.0000    24.0000 </r>
       <r>    -9.6005     0.0000    24.0000 </r>
       <r>    -9.4203     0.0000    24.0000 </r>
       <r>    -9.2401     0.1731    24.0312 </r>
       <r>    -9.0598     0.6486    24.1482 </r>
       <r>    -8.8796     0.6409    24.3343 </r>
       <r>    -8.6994     1.1433    24.7998 </r>
       <r>    -8.5191     1.0191    25.0274 </r>
       <r>    -8.3389     4.1613    25.7812 </r>
       <r>    -8.1587     0.0000    26.5312 </r>
       <r>    -7.9784     6.2879    27.6645 </r>
       <r>    -7.7982     8.1298    29.4340 </r>
       <r>    -7.6180     0.3749    31.0363 </r>
       <r>    -7.4377     0.0000    32.0000 </r>
       <r>    -7.2575     0.0000    32.0000 </r>
       <r>    -7.0773     0.0000    32.0000 </r>
       <r>    -6.8970     0.0000    32.0000 </r>
       <r>    -6.7168     0.0000    32.0000 </r>
       <r>    -6.5366     0.0000    32.0000 </r>
       <r>    -6.3563     0.0000    32.0000 </r>
       <r>    -6.1761     0.0000    32.0000 </r>
       <r>    -5.9959     0.0000    32.0000 </r>
       <r>    -5.8156     0.0000    32.0000 </r>
       <r>    -5.6354     0.0000    32.0000 </r>
       <r>    -5.4552     0.0000    32.0000 </r>
       <r>    -5.2749     0.0000    32.0000 </r>
       <r>    -5.0947     0.0000    32.0000 </r>
       <r>    -4.9145     0.0000    32.0000 </r>
       <r>    -4.7342     0.0000    32.0000 </r>
       <r>    -4.5540     0.0000    32.0000 </r>
       <r>    -4.3738     0.0000    32.0000 </r>
       <r>    -4.1935     0.0000    32.0000 </r>
       <r>    -4.0133     0.0000    32.0000 </r>
       <r>    -3.8331     0.0000    32.0000 </r>
       <r>    -3.6528     0.0000    32.0000 </r>
       <r>    -3.4726     0.0000    32.0000 </r>
       <r>    -3.2924     0.0000    32.0000 </r>
       <r>    -3.1121     0.0000    32.0000 </r>
       <r>    -2.9319     0.0000    32.0000 </r>
       <r>    -2.7517     0.0000    32.0000 </r>
       <r>    -2.5714     0.0000    32.0000 </r>
       <r>    -2.3912     0.0000    32.0000 </r>
       <r>    -2.2110     0.0000    32.0000 </r>
       <r>    -2.0307     0.0000    32.0000 </r>
       <r>    -1.8505     0.0000    32.0000 </r>
       <r>    -1.6703     0.0000    32.0000 </r>
       <r>    -1.4901     0.0211    32.0038 </r>
       <r>    -1.3098     0.0000    32.1250 </r>
       <r>    -1.1296     0.0000    32.1250 </r>
       <r>    -0.9494     2.6648    33.3553 </r>
       <r>    -0.7691     0.5202    33.7188 </r>
       <r>    -0.5889     0.6439    34.5848 </r>
       <r>    -0.4087     4.7930    35.7076 </r>
       <r>    -0.2284     0.0000    38.0312 </r>
       <r>    -0.0482     0.0000    38.0312 </r>
       <r>     0.1320     1.8698    38.3682 </r>
       <r>     0.3123     4.1613    39.5313 </r>
       <r>     0.4925     0.0000    40.2813 </r>
       <r>     0.6727     0.0000    40.5312 </r>
       <r>     0.8530     1.0403    40.7188 </r>
       <r>     1.0332     3.1144    41.2801 </r>
       <r>     1.2134     7.8172    43.0652 </r>
       <r>     1.3937     2.0697    44.6543 </r>
       <r>     1.5739     0.0000    44.6562 </r>
       <r>     1.7541     2.4801    45.2907 </r>
       <r>     1.9344     8.3226    47.4687 </r>
       <r>     2.1146     0.0019    48.5941 </r>
       <r>     2.2948     0.0545    50.1036 </r>
       <r>     2.4751     4.1613    51.4062 </r>
       <r>     2.6553     2.8329    52.6668 </r>
       <r>     2.8355     0.0000    54.6562 </r>
       <r>     3.0158     3.5234    55.2913 </r>
       <r>     3.1960     0.0000    55.5313 </r>
       <r>     3.3762     0.5202    56.0000 </r>
       <r>     3.5565     0.0000    56.0000 </r>
       <r>     3.7367     0.0000    56.0000 </r>
       <r>     3.9169     0.0000    56.0000 </r>
       <r>     4.0972     0.0000    56.0000 </r>
       <r>     4.2774     0.0000    56.0000 </r>
       <r>     4.4576     0.0000    56.0000 </r>
       <r>     4.6379     0.0000    56.0000 </r>
       <r>     4.8181     0.0000    56.0000 </r>
       <r>     4.9983     0.0000    56.0000 </r>
       <r>     5.1786     0.0000    56.0000 </r>
       <r>     5.3588     0.0000    56.0000 </r>
       <r>     5.5390     0.0000    56.0000 </r>
       <r>     5.7193     0.0000    56.0000 </r>
       <r>     5.8995     0.0000    56.0000 </r>
       <r>     6.0797     0.5202    56.0938 </r>
       <r>     6.2600     0.0000    56.0938 </r>
       <r>     6.4402     0.0000    56.0938 </r>
       <r>     6.6204     0.0016    56.0940 </r>
       <r>     6.8007     0.1176    56.3024 </r>
       <r>     6.9809     0.0000    56.3125 </r>
       <r>     7.1611     2.0806    57.0625 </r>
       <r>     7.3414     0.0000    57.0625 </r>
       <r>     7.5216     0.0000    57.0625 </r>
       <r>     7.7018     4.3032    58.6818 </r>
       <r>     7.8821     0.0000    58.7813 </r>
       <r>     8.0623     0.0000    59.1563 </r>
       <r>     8.2425     1.0403    59.5937 </r>
       <r>     8.4228     0.0000    59.5938 </r>
       <r>     8.6030     0.0000    62.4062 </r>
       <r>     8.7832     2.1913    62.8012 </r>
       <r>     8.9634     2.2366    64.1219 </r>
       <r>     9.1437     0.0000    65.5938 </r>
       <r>     9.3239     4.1613    66.3437 </r>
       <r>     9.5041     0.0000    66.3438 </r>
       <r>     9.6844     0.0163    66.3467 </r>
       <r>     9.8646     4.1612    68.5937 </r>
       <r>    10.0448     0.0000    69.7188 </r>
       <r>    10.2251     0.7534    69.9795 </r>
       <r>    10.4053     0.0071    70.7825 </r>
       <r>    10.5855     0.0000    71.1562 </r>
       <r>    10.7658     2.0806    71.5312 </r>
       <r>    10.9460     0.0000    71.5312 </r>
       <r>    11.1262     1.3897    71.7817 </r>
       <r>    11.3065     0.0000    72.0000 </r>
       <r>    11.4867     0.0000    72.0000 </r>
       <r>    11.6669     0.0000    72.0000 </r>
       <r>    11.8472     0.0000    72.0000 </r>
       <r>    12.0274     0.0000    72.0000 </r>
       <r>    12.2076     0.0000    72.0000 </r>
       <r>    12.3879     0.0000    72.0000 </r>
       <r>    12.5681     0.0000    72.0000 </r>
       <r>    12.7483     0.0000    72.0000 </r>
       <r>    12.9286     0.0000    72.0000 </r>
       <r>    13.1088     0.0000    72.0000 </r>
       <r>    13.2890     0.0000    72.0000 </r>
       <r>    13.4693     0.0000    72.0000 </r>
       <r>    13.6495     0.0000    72.0000 </r>
      </set>
     </set>
    </array>
   </total>
  </dos>
 </calculation>
 <structure name="finalpos" >
  <crystal>
   <varray name="basis" >
    <v>       5.23227293       0.00000000       0.00000000 </v>
    <v>       0.00000000       5.23227293       0.00000000 </v>
    <v>       0.00000000       0.00000000       5.23227293 </v>
   </varray>
   <i name="volume">    143.24226150 </i>
   <varray name="rec_basis" >
    <v>       0.19112153       0.00000000       0.00000000 </v>
    <v>       0.00000000       0.19112153       0.00000000 </v>
    <v>       0.00000000       0.00000000       0.19112153 </v>
   </varray>
  </crystal>
  <varray name="positions" >
   <v>       0.00000000       0.00000000       0.00000000 </v>
   <v>       0.00000000       0.50000000       0.50000000 </v>
   <v>       0.50000000       0.00000000       0.50000000 </v>
   <v>       0.50000000       0.50000000       0.00000000 </v>
   <v>       0.50000000       0.00000000       0.00000000 </v>
   <v>       0.50000000       0.50000000       0.50000000 </v>
   <v>       0.00000000       0.00000000       0.50000000 </v>
   <v>       0.00000000       0.50000000       0.00000000 </v>
  </varray>
 </structure>
</modeling>
