64   
2    

1    
  0.0100000000000000   0.0000000000000000   0.0000000000000000
  -0.0485456600    0.0000000000    0.0000000000
   0.0108193400    0.0000000000    0.0000000000
   0.0012652000    0.0000000000    0.0000000000
  -0.0006738200    0.0000000000    0.0000000000
   0.0012652000    0.0000000000    0.0000000000
  -0.0006738200    0.0000000000    0.0000000000
  -0.0004927800    0.0000000000    0.0000000000
   0.0004825500    0.0000000000    0.0000000000
  -0.0009939700   -0.0000052700   -0.0000052700
   0.0007353800    0.0000012200    0.0000012200
  -0.0009939700    0.0000052700   -0.0000052700
   0.0007353800   -0.0000012200    0.0000012200
  -0.0009939700   -0.0000052700    0.0000052700
   0.0007353800    0.0000012200   -0.0000012200
  -0.0009939700    0.0000052700    0.0000052700
   0.0007353800   -0.0000012200   -0.0000012200
   0.0008985600    0.0000000000    0.0061735700
   0.0008965300    0.0000000000   -0.0061278100
  -0.0000138000    0.0000000000   -0.0005172400
  -0.0000110300    0.0000000000    0.0005149500
   0.0008985600    0.0000000000   -0.0061735700
   0.0008965300    0.0000000000    0.0061278100
  -0.0000138000    0.0000000000    0.0005172400
  -0.0000110300    0.0000000000   -0.0005149500
   0.0008985600    0.0061735700    0.0000000000
   0.0008965300   -0.0061278100    0.0000000000
   0.0008985600   -0.0061735700    0.0000000000
   0.0008965300    0.0061278100    0.0000000000
  -0.0000138000   -0.0005172400    0.0000000000
  -0.0000110300    0.0005149500    0.0000000000
  -0.0000138000    0.0005172400    0.0000000000
  -0.0000110300   -0.0005149500    0.0000000000
   0.0144266100    0.0000000000    0.0000000000
   0.0132884300    0.0000000000    0.0000000000
   0.0004679600    0.0000000000    0.0000000000
   0.0004583900    0.0000000000    0.0000000000
   0.0004679600    0.0000000000    0.0000000000
   0.0004583900    0.0000000000    0.0000000000
  -0.0000069800    0.0000000000    0.0000000000
  -0.0000092100    0.0000000000    0.0000000000
  -0.0000159600   -0.0009624100   -0.0009624100
  -0.0000226800    0.0009564500    0.0009564500
  -0.0000159600    0.0009624100   -0.0009624100
  -0.0000226800   -0.0009564500    0.0009564500
  -0.0000159600   -0.0009624100    0.0009624100
  -0.0000226800    0.0009564500   -0.0009564500
  -0.0000159600    0.0009624100    0.0009624100
  -0.0000226800   -0.0009564500   -0.0009564500
   0.0029940500    0.0000000000   -0.0000441200
  -0.0026576200    0.0000000000   -0.0000025700
   0.0003623800    0.0000000000    0.0000045600
  -0.0004212800    0.0000000000   -0.0000004600
   0.0029940500    0.0000000000    0.0000441200
  -0.0026576200    0.0000000000    0.0000025700
   0.0003623800    0.0000000000   -0.0000045600
  -0.0004212800    0.0000000000    0.0000004600
   0.0029940500   -0.0000441200    0.0000000000
  -0.0026576200   -0.0000025700    0.0000000000
   0.0029940500    0.0000441200    0.0000000000
  -0.0026576200    0.0000025700    0.0000000000
   0.0003623800    0.0000045600    0.0000000000
  -0.0004212800   -0.0000004600    0.0000000000
   0.0003623800   -0.0000045600    0.0000000000
  -0.0004212800    0.0000004600    0.0000000000

33   
  0.0100000000000000   0.0000000000000000   0.0000000000000000
   0.0132711500    0.0000000000    0.0000000000
   0.0144432500    0.0000000000    0.0000000000
   0.0004643800    0.0000000000    0.0000000000
   0.0004682600    0.0000000000    0.0000000000
   0.0004643800    0.0000000000    0.0000000000
   0.0004682600    0.0000000000    0.0000000000
  -0.0000061700    0.0000000000    0.0000000000
  -0.0000059500    0.0000000000    0.0000000000
  -0.0000181800    0.0009597300    0.0009597300
  -0.0000145000   -0.0009588000   -0.0009588000
  -0.0000181800   -0.0009597300    0.0009597300
  -0.0000145000    0.0009588000   -0.0009588000
  -0.0000181800    0.0009597300   -0.0009597300
  -0.0000145000   -0.0009588000    0.0009588000
  -0.0000181800   -0.0009597300   -0.0009597300
  -0.0000145000    0.0009588000    0.0009588000
   0.0029953000    0.0000000000   -0.0000350000
  -0.0026544200    0.0000000000    0.0000012100
   0.0003641900    0.0000000000   -0.0000003800
  -0.0004178000    0.0000000000   -0.0000013000
   0.0029953000    0.0000000000    0.0000350000
  -0.0026544200    0.0000000000   -0.0000012100
   0.0003641900    0.0000000000    0.0000003800
  -0.0004178000    0.0000000000    0.0000013000
   0.0029953000   -0.0000350000    0.0000000000
  -0.0026544200    0.0000012100    0.0000000000
   0.0029953000    0.0000350000    0.0000000000
  -0.0026544200   -0.0000012100    0.0000000000
   0.0003641900   -0.0000003800    0.0000000000
  -0.0004178000   -0.0000013000    0.0000000000
   0.0003641900    0.0000003800    0.0000000000
  -0.0004178000    0.0000013000    0.0000000000
  -0.0648179700    0.0000000000    0.0000000000
   0.0022360200    0.0000000000    0.0000000000
  -0.0012490500    0.0000000000    0.0000000000
   0.0029020800    0.0000000000    0.0000000000
  -0.0012490500    0.0000000000    0.0000000000
   0.0029020800    0.0000000000    0.0000000000
  -0.0004959700    0.0000000000    0.0000000000
   0.0004873600    0.0000000000    0.0000000000
  -0.0014488000   -0.0000028100   -0.0000028100
   0.0010999300   -0.0000001300   -0.0000001300
  -0.0014488000    0.0000028100   -0.0000028100
   0.0010999300    0.0000001300   -0.0000001300
  -0.0014488000   -0.0000028100    0.0000028100
   0.0010999300   -0.0000001300    0.0000001300
  -0.0014488000    0.0000028100    0.0000028100
   0.0010999300    0.0000001300    0.0000001300
   0.0038060200    0.0000000000   -0.0057856100
   0.0038206700    0.0000000000    0.0058267200
  -0.0000507100    0.0000000000   -0.0005488700
  -0.0000524800    0.0000000000    0.0005505400
   0.0038060200    0.0000000000    0.0057856100
   0.0038206700    0.0000000000   -0.0058267200
  -0.0000507100    0.0000000000    0.0005488700
  -0.0000524800    0.0000000000   -0.0005505400
   0.0038060200   -0.0057856100    0.0000000000
   0.0038206700    0.0058267200    0.0000000000
   0.0038060200    0.0057856100    0.0000000000
   0.0038206700   -0.0058267200    0.0000000000
  -0.0000507100   -0.0005488700    0.0000000000
  -0.0000524800    0.0005505400    0.0000000000
  -0.0000507100    0.0005488700    0.0000000000
  -0.0000524800   -0.0005505400    0.0000000000
