# epsilon and Z* of atoms 1 5 7 9
   4.47994406    0.00000000    0.19790109    0.00000000    4.06559118    0.00000000    0.19790046    0.00000000    3.70206643 
  -1.51679576   -0.27085647   -0.30978681   -0.01782625   -2.27352081   -0.71825240   -0.01144272   -0.23840395   -1.91433898 
  -3.74495756    0.00000000   -0.08167258    0.00000000   -1.20392472    0.00000000   -0.55187675    0.00000000   -1.27769110 
   4.01298160    0.00000000    0.59404728    0.00000000    3.02631573    0.00000000    0.52707047    0.00000000    2.23705373 
   2.76556749    0.00000000    0.10719892    0.00000000    2.72465062    0.00000000    0.04769174    0.00000000    2.86931533 
