120  
21   

1    
  0.0099997667646205   0.0000000000000000   0.0000682982663890
  -0.0475435200   -0.0136958500   -0.0117897800
   0.0029218100   -0.0002517300   -0.0002578000
   0.0029132000    0.0010450100    0.0000597700
   0.0009337100    0.0001110700   -0.0003779000
   0.0014278400    0.0007140500   -0.0001029600
   0.0014342400   -0.0002815100   -0.0003546700
   0.0011957300    0.0002011200   -0.0006470400
   0.0013408800    0.0001119500   -0.0001658700
   0.0013400400    0.0000735700    0.0000787200
   0.0012295000    0.0000510000   -0.0005422000
   0.0013309800    0.0002212700   -0.0001511400
   0.0013318400    0.0001610700   -0.0001870700
  -0.0015348800    0.0009314000    0.0016652100
  -0.0008967600    0.0000941200    0.0003815500
  -0.0014714800   -0.0005338200   -0.0009571200
  -0.0015323000   -0.0001911100    0.0007164500
  -0.0008968400    0.0001029000    0.0003637000
  -0.0014723100    0.0005415000   -0.0002747400
  -0.0011189300    0.0003392700   -0.0000558200
  -0.0010107500   -0.0001541400    0.0007077200
  -0.0018943700    0.0001843400    0.0004706200
  -0.0011212000   -0.0000392900    0.0001087600
  -0.0010082200    0.0002298300    0.0005183000
  -0.0018880200   -0.0001087600   -0.0000785000
  -0.0004403900    0.0005529000    0.0043455700
  -0.0008105600   -0.0000857000    0.0003990700
  -0.0002538800   -0.0010059600   -0.0037778900
  -0.0014452900   -0.0001367000    0.0003795700
  -0.0010152400   -0.0001115300    0.0003473300
  -0.0014259000   -0.0001506800    0.0000919500
  -0.0010416100   -0.0001212000   -0.0000268600
  -0.0008934500   -0.0000721600    0.0006778500
  -0.0020941400    0.0000178600    0.0000499400
  -0.0012288600   -0.0001848400    0.0000878200
  -0.0010814900   -0.0000215100    0.0005789500
  -0.0015012600   -0.0002858800    0.0002151400
  -0.0028758600    0.0005796700   -0.0005127500
   0.0018045500   -0.0010714300    0.0002484200
   0.0018124500    0.0002481700   -0.0003870400
  -0.0013789600    0.0001762700   -0.0004805800
   0.0040735400    0.0021046600   -0.0009643900
   0.0040367100   -0.0025757400    0.0004835000
   0.0012354600   -0.0000984300   -0.0006550100
   0.0013168500   -0.0002325400   -0.0001371600
   0.0013172200   -0.0000492700    0.0000034700
   0.0011591000   -0.0001969800   -0.0005711500
   0.0013586600   -0.0000772000   -0.0001467100
   0.0013588000   -0.0001900400   -0.0001539500
   0.0118485200   -0.0026581700    0.0012920300
   0.0106804700    0.0000972600    0.0043876100
   0.0081763700    0.0124170600    0.0181235200
   0.0081806900    0.0007392500    0.0038297300
   0.0097399600   -0.0001402500    0.0045629200
   0.0075647600   -0.0004909400    0.0045148000
   0.0082228900   -0.0000347200    0.0041797800
   0.0088709400   -0.0000278100    0.0045083200
   0.0083746000    0.0000524300    0.0041104300
   0.0082075200    0.0000274100    0.0043090200
   0.0087917100    0.0000332900    0.0044451000
   0.0084685000   -0.0000602800    0.0041673200
  -0.0101430600    0.0000057400   -0.0045493900
  -0.0074683700    0.0002093300   -0.0037405100
  -0.0077695300   -0.0000467300   -0.0044813500
  -0.0089131200   -0.0000125200   -0.0043963600
  -0.0082970600   -0.0000302400   -0.0041623800
  -0.0082606700    0.0000169500   -0.0043497500
  -0.0101664300    0.0006888600   -0.0059581000
  -0.0075404600    0.0000282500   -0.0043861500
  -0.0078056200   -0.0002828800   -0.0031667500
  -0.0089981000   -0.0002451200   -0.0044047000
  -0.0079173100   -0.0000231700   -0.0043165600
  -0.0082040600    0.0005741800   -0.0040165600
   0.0119867300   -0.0010903000    0.0022625000
   0.0108414700   -0.0000081800    0.0038428700
   0.0128403300    0.0009571900    0.0057789100
   0.0119103800    0.0001350900    0.0038034400
   0.0114632700    0.0000067700    0.0039053300
   0.0120806500   -0.0001360600    0.0043895400
   0.0109798500   -0.0001947600    0.0045122300
   0.0101270200    0.0001879300    0.0034015100
   0.0153435200   -0.0007902700    0.0044122700
   0.0114529900    0.0002278100    0.0041897200
   0.0108960000   -0.0001736200    0.0037385900
   0.0129139500    0.0003927800    0.0040474100
   0.0178792100    0.0014161100   -0.0024375900
  -0.0158532300    0.0007697500   -0.0045189800
  -0.0147072000   -0.0008205200   -0.0046606300
  -0.0103311100   -0.0001190100   -0.0036783900
  -0.0124262400   -0.0013930000   -0.0031012400
  -0.0124057300    0.0013594300   -0.0052903400
  -0.0114789900   -0.0000844700   -0.0035605600
  -0.0116977400    0.0000987900   -0.0042838800
  -0.0121599500   -0.0000304100   -0.0043141300
  -0.0115245400    0.0001674300   -0.0037076400
  -0.0117590300   -0.0001553400   -0.0042255400
  -0.0121193600    0.0000191000   -0.0041625000
   0.0081603500    0.0033128500   -0.0010211500
  -0.0025628300   -0.0000413800   -0.0004271500
   0.0045812600   -0.0012817100    0.0001252200
  -0.0000841300    0.0005789100   -0.0005761100
  -0.0016581200    0.0000392300   -0.0004034600
  -0.0004698600   -0.0010942400    0.0000728400
  -0.0004055800   -0.0000173900   -0.0001180500
  -0.0010033700    0.0000401700   -0.0009076600
  -0.0006829500   -0.0000349600   -0.0002025700
  -0.0005285700    0.0000203200   -0.0002139200
  -0.0009130200   -0.0000291400   -0.0006631600
  -0.0006594600    0.0000102900   -0.0002587300
   0.0047708800    0.0000620100    0.0006793300
  -0.0002531900    0.0005311500   -0.0004074000
  -0.0002143600   -0.0004809600    0.0010638200
   0.0016969000   -0.0000419100    0.0004127000
   0.0001630000   -0.0004519600   -0.0000915700
   0.0002474900    0.0003841000    0.0008532500
   0.0008203900    0.0000439400    0.0017144700
   0.0000044200    0.0000099000    0.0003514500
   0.0010027700   -0.0000014200   -0.0012976100
   0.0010429700   -0.0001288900    0.0008217500
   0.0001559200   -0.0000158000    0.0003137900
   0.0008970200    0.0001384900    0.0001117100

1    
 -0.0099997667646205   0.0000000000000000  -0.0000682982663890
   0.0499690400    0.0126813900    0.0107247900
  -0.0003214400    0.0005348900   -0.0003339800
  -0.0003259300   -0.0007669000   -0.0006551200
   0.0016572500    0.0002000900   -0.0002060100
   0.0011600800   -0.0004134000   -0.0004820600
   0.0011628300    0.0005825900   -0.0002307200
   0.0013955900    0.0000878100    0.0000616600
   0.0012503100    0.0001770200   -0.0004215600
   0.0012528900    0.0002164900   -0.0006636100
   0.0013610000    0.0002429500   -0.0000430700
   0.0012607700    0.0000718700   -0.0004350800
   0.0012612000    0.0001319900   -0.0003978000
  -0.0010582000   -0.0006351900   -0.0010601400
  -0.0016950100    0.0001969300    0.0002114100
  -0.0011213300    0.0008285500    0.0015588100
  -0.0010685700    0.0004830600   -0.0001323200
  -0.0016949800    0.0001877400    0.0002275900
  -0.0011130900   -0.0002501100    0.0008580300
  -0.0014739700   -0.0000456700    0.0006427400
  -0.0015811000    0.0004464200   -0.0001179000
  -0.0007013100    0.0001036900    0.0001249300
  -0.0014739600    0.0003303400    0.0004801500
  -0.0015814700    0.0000604800    0.0000744300
  -0.0007020700    0.0004128600    0.0006801700
  -0.0021485700   -0.0008482400   -0.0037271000
  -0.0017794500   -0.0002075800    0.0001897000
  -0.0023388200    0.0007117500    0.0043902200
  -0.0011476000   -0.0001500800    0.0002066100
  -0.0015759000   -0.0001774500    0.0002425700
  -0.0011648200   -0.0001353000    0.0004946900
  -0.0015513200   -0.0001741800    0.0006106000
  -0.0016964800   -0.0002230800   -0.0000907500
  -0.0004986100   -0.0003225900    0.0005437400
  -0.0013645600   -0.0001046500    0.0004992100
  -0.0015082500   -0.0002660800    0.0000105400
  -0.0010909500    0.0000066700    0.0003810600
   0.0054643300   -0.0007789700   -0.0001128600
   0.0007870300    0.0007709500   -0.0008347300
   0.0007863300   -0.0005424400   -0.0002045800
   0.0039687100   -0.0004523700   -0.0001220600
  -0.0014526900   -0.0023750900    0.0003675600
  -0.0014701500    0.0023048800   -0.0010803400
   0.0013562700   -0.0001931200    0.0000676300
   0.0012747000   -0.0000584300   -0.0004530000
   0.0012769100   -0.0002427100   -0.0005899700
   0.0014326600   -0.0000928700   -0.0000182100
   0.0012344900   -0.0002135200   -0.0004427800
   0.0012348300   -0.0001008100   -0.0004349500
   0.0051641400    0.0026086700    0.0072641600
   0.0063036900   -0.0001004500    0.0042095700
   0.0087400500   -0.0125827900   -0.0096768600
   0.0087858800   -0.0007276800    0.0047655400
   0.0072290500    0.0001437200    0.0040352700
   0.0094088100    0.0005004300    0.0040819400
   0.0087417500    0.0000327400    0.0044138000
   0.0081023000    0.0000269200    0.0040953800
   0.0085981700   -0.0000535800    0.0044930300
   0.0087619500   -0.0000260100    0.0042937200
   0.0081819000   -0.0000325300    0.0041585800
   0.0085029700    0.0000613900    0.0044365700
  -0.0068267200   -0.0000093300   -0.0040494700
  -0.0094948100   -0.0002092100   -0.0048575400
  -0.0092021900    0.0000459100   -0.0041181800
  -0.0080583800    0.0000159500   -0.0042087800
  -0.0086758000    0.0000308400   -0.0044392300
  -0.0087063200   -0.0000168200   -0.0042502900
  -0.0068196800   -0.0006877700   -0.0026584200
  -0.0094278700   -0.0000291200   -0.0042177400
  -0.0091604600    0.0002790500   -0.0054437800
  -0.0079844500    0.0002519000   -0.0041934600
  -0.0090530800    0.0000236500   -0.0042855900
  -0.0087564500   -0.0005721500   -0.0045834600
   0.0116051400    0.0010919500    0.0057813800
   0.0127513600    0.0000091100    0.0042073800
   0.0107534400   -0.0009526300    0.0022684000
   0.0116901700   -0.0001406100    0.0042531500
   0.0121306200   -0.0000077400    0.0041440000
   0.0115121000    0.0001303600    0.0036662700
   0.0126146800    0.0001958200    0.0035482500
   0.0134697000   -0.0001848700    0.0046542300
   0.0082665000    0.0007940200    0.0036480100
   0.0121504300   -0.0002289900    0.0038640300
   0.0126926400    0.0001701400    0.0043108100
   0.0106787100   -0.0004150600    0.0039964700
  -0.0413653500   -0.0006631700   -0.0049178200
  -0.0077559600   -0.0007634300   -0.0035364800
  -0.0089120500    0.0008294700   -0.0033815200
  -0.0132640000    0.0000981900   -0.0043699400
  -0.0111703100    0.0013752100   -0.0049434000
  -0.0111890600   -0.0013764400   -0.0027540800
  -0.0121184700    0.0000872300   -0.0044934300
  -0.0118912500   -0.0000964300   -0.0037682500
  -0.0114387300    0.0000321500   -0.0037411700
  -0.0120705300   -0.0001711300   -0.0043468800
  -0.0118370600    0.0001520700   -0.0038284200
  -0.0114785800   -0.0000209600   -0.0038923900
  -0.0091605700   -0.0029650300    0.0002153500
   0.0011585100    0.0000447000   -0.0003723700
  -0.0063093500    0.0015762700   -0.0009299900
  -0.0012815300   -0.0005950000   -0.0002210600
   0.0002547100   -0.0000414500   -0.0003960100
  -0.0009595600    0.0010719500   -0.0008705900
  -0.0009932100    0.0000191700   -0.0006836800
  -0.0003985000   -0.0000394500    0.0001045800
  -0.0007169600    0.0000362300   -0.0006037800
  -0.0008699600   -0.0000223600   -0.0005849400
  -0.0004884500    0.0000280900   -0.0001387900
  -0.0007414300   -0.0000121700   -0.0005490800
  -0.0033640500   -0.0000218200    0.0001167500
   0.0016509200   -0.0005246000    0.0012026600
   0.0016146300    0.0004868400   -0.0002642100
  -0.0002944600    0.0000301300    0.0003862300
   0.0012351100    0.0004448200    0.0008873100
   0.0011535100   -0.0003905800   -0.0000569800
   0.0006008700   -0.0000376400   -0.0009253600
   0.0013934800   -0.0000080000    0.0004496200
   0.0003853900    0.0000049900    0.0020833400
   0.0003641400    0.0001242200   -0.0000189800
   0.0012429100    0.0000135900    0.0004883700
   0.0004986700   -0.0001414500    0.0006901500

1    
  0.0000000000000000   0.0100000000000000   0.0000000000000000
  -0.0109515500   -0.1643143100   -0.1031413100
   0.0022063200   -0.0020872100   -0.0013977100
   0.0009090300   -0.0020843000   -0.0013828600
   0.0012424900    0.0044661800    0.0007955400
   0.0008605800    0.0016114000    0.0001656200
   0.0018542700    0.0016109200    0.0000934500
   0.0013509900   -0.0003324200   -0.0002793000
   0.0012229200   -0.0002487500   -0.0003536200
   0.0012594700   -0.0002490500   -0.0000024100
   0.0011970000    0.0005805400   -0.0001343500
   0.0013075400    0.0004733400   -0.0001365600
   0.0013677500    0.0004732600   -0.0001287100
  -0.0009684500    0.0006312200    0.0020850900
  -0.0012536800    0.0001080800    0.0004885300
  -0.0017019900    0.0006223700    0.0016987500
  -0.0020716600    0.0006361900   -0.0008801200
  -0.0012427100    0.0001099800    0.0002027700
  -0.0006022000    0.0006269100   -0.0009658800
  -0.0011084600    0.0002558700    0.0000905900
  -0.0013789900    0.0002606100    0.0001557800
  -0.0010188300    0.0012073100   -0.0016769300
  -0.0014876800    0.0002575100    0.0003371400
  -0.0009955000    0.0002613100    0.0005566900
  -0.0013420900    0.0012086600    0.0014084400
  -0.0006119300   -0.0016690000    0.0025105100
  -0.0012325900   -0.0004738000    0.0002157600
  -0.0021609600   -0.0017541300    0.0020065800
  -0.0012860800    0.0006638300    0.0001599800
  -0.0012623500    0.0002140600    0.0004176500
  -0.0013013500    0.0007247900    0.0001427000
  -0.0012656700   -0.0008549500   -0.0000283900
  -0.0012169300   -0.0010239000    0.0000463900
  -0.0011194400   -0.0033837600   -0.0002333800
  -0.0013351000    0.0003766800    0.0004490400
  -0.0011742200    0.0005168900    0.0006566900
  -0.0014474100    0.0014871300    0.0013274300
   0.0005911800    0.0176285500    0.0034011000
   0.0009003400   -0.0002705300   -0.0005723600
   0.0022181600   -0.0002729000   -0.0005916100
   0.0009958300    0.0080623400   -0.0026213700
   0.0037437200    0.0022529600   -0.0009602500
  -0.0009439700    0.0022528000   -0.0010022900
   0.0012455600   -0.0002541000    0.0000174700
   0.0011972400   -0.0001809200   -0.0001846300
   0.0013783900   -0.0001808700    0.0002422700
   0.0013481200    0.0000565400   -0.0004635600
   0.0013394300   -0.0000393800   -0.0002751500
   0.0012274400   -0.0000390100   -0.0004318500
   0.0051354400   -0.0012826700    0.0045219000
   0.0097315300   -0.0002901400    0.0038731700
   0.0191139000   -0.0020486000    0.0076767100
   0.0088536400    0.0011107800    0.0039038800
   0.0083309700    0.0004101900    0.0040449400
   0.0076072900    0.0013396200    0.0037459300
   0.0078603500   -0.0002288800    0.0033202200
   0.0086013300   -0.0001295500    0.0043839500
   0.0085858900   -0.0001907900    0.0043289000
   0.0085590200    0.0002047500    0.0044812300
   0.0085817800    0.0001367500    0.0044052500
   0.0084431700    0.0001929600    0.0043817800
  -0.0085069300   -0.0002139600   -0.0032843000
  -0.0077142700   -0.0000197700   -0.0039659500
  -0.0087454200   -0.0000843100   -0.0042095100
  -0.0085453600    0.0004127700   -0.0046283300
  -0.0088376300    0.0001733900   -0.0043801000
  -0.0082449000    0.0001080200   -0.0042350200
  -0.0080740000   -0.0003424000   -0.0062756200
  -0.0081565000   -0.0002069000   -0.0044918700
  -0.0099824400   -0.0007621900   -0.0052048700
  -0.0093087700    0.0007772800   -0.0037392900
  -0.0084652700    0.0002065600   -0.0042323000
  -0.0073174600    0.0007501700   -0.0038813900
   0.0108882600    0.0000791700    0.0022212400
   0.0116444400    0.0002577000    0.0040435400
   0.0124532400    0.0001732200    0.0024664900
   0.0122425200   -0.0009081000    0.0045815200
   0.0117456700   -0.0002327700    0.0038496900
   0.0115882400   -0.0008906200    0.0045487200
   0.0107749700    0.0005425300    0.0046443800
   0.0124820000    0.0006536400    0.0046930900
   0.0125853300    0.0031546900    0.0083970600
   0.0124420800   -0.0005447900    0.0037915100
   0.0107890000   -0.0006902200    0.0035054600
   0.0118284300   -0.0024353000    0.0025912100
  -0.0079981000    0.1305703500    0.0941239500
  -0.0107083900    0.0014079400   -0.0024043100
  -0.0159944000    0.0013304400   -0.0025892200
  -0.0113049900   -0.0051336400   -0.0022160600
  -0.0120618600   -0.0019166800   -0.0035665100
  -0.0113793600   -0.0018829500   -0.0034281100
  -0.0120124200    0.0004623500   -0.0041018300
  -0.0111069400    0.0003470800   -0.0040232000
  -0.0119392000    0.0003197400   -0.0043328400
  -0.0117396500   -0.0005385000   -0.0041401300
  -0.0119235000   -0.0003827700   -0.0042442300
  -0.0118360600   -0.0003439000   -0.0041303600
   0.0000719400    0.0039822900   -0.0011274600
  -0.0009386200    0.0008109000   -0.0003445100
   0.0007039100    0.0037404000   -0.0002128500
   0.0028405800   -0.0031375400   -0.0000505000
  -0.0008819700   -0.0006702000   -0.0002493400
  -0.0039019300   -0.0038449600    0.0001736500
  -0.0007276400    0.0002624700   -0.0005749700
  -0.0007740400    0.0001896500   -0.0005633500
  -0.0005758500    0.0003801100   -0.0001602300
  -0.0006181500   -0.0002450800   -0.0003454000
  -0.0007810700   -0.0001836300   -0.0005766200
  -0.0007262800   -0.0002594600   -0.0010370000
   0.0011539800    0.0074722200   -0.0015703900
   0.0006623100    0.0007974300    0.0005617300
   0.0005466700    0.0007732000    0.0008574700
   0.0007717000   -0.0017744400   -0.0005715200
   0.0004356000   -0.0007742000   -0.0000245700
   0.0008792100   -0.0007341300    0.0000650600
   0.0018784700    0.0010375300   -0.0010657700
   0.0005371000    0.0003687500    0.0000840400
  -0.0001073200    0.0009172100   -0.0020075000
   0.0005715400   -0.0011306800    0.0007770400
   0.0005777600   -0.0003648500    0.0005670300
   0.0009554400   -0.0009595800    0.0007482300

1    
  0.0000000000000000  -0.0100000000000000   0.0000000000000000
   0.0139965800    0.1697004200    0.1080422100
   0.0003836200    0.0023641900    0.0008035700
   0.0016848000    0.0023669700    0.0007946600
   0.0013488700   -0.0041654800   -0.0013804800
   0.0017338200   -0.0013187900   -0.0007514300
   0.0007350800   -0.0013192600   -0.0006798200
   0.0012416900    0.0006223300   -0.0003076100
   0.0013687900    0.0005389600   -0.0002339000
   0.0013322400    0.0005388100   -0.0005839200
   0.0013951200   -0.0002885500   -0.0004532300
   0.0012843800   -0.0001819500   -0.0004506300
   0.0012242000   -0.0001818300   -0.0004589200
  -0.0016216800   -0.0003420500   -0.0014875100
  -0.0013390500    0.0001811900    0.0001025600
  -0.0008940600   -0.0003331000   -0.0011016100
  -0.0005253800   -0.0003377800    0.0014682500
  -0.0013508800    0.0001828400    0.0003860300
  -0.0019861800   -0.0003300200    0.0015541400
  -0.0014838400    0.0000342100    0.0004981600
  -0.0012144500    0.0000302800    0.0004329400
  -0.0015711800   -0.0009089100    0.0022549000
  -0.0011060400    0.0000355600    0.0002523900
  -0.0015967200    0.0000301500    0.0000326600
  -0.0012498100   -0.0009073100   -0.0008197800
  -0.0019862700    0.0013571700   -0.0019356200
  -0.0013595800    0.0001800000    0.0003707300
  -0.0004228900    0.0014428800   -0.0014333800
  -0.0013046200   -0.0009533300    0.0004311900
  -0.0013296800   -0.0005046100    0.0001707400
  -0.0012915300   -0.0010139900    0.0004486200
  -0.0013268100    0.0005594200    0.0006138300
  -0.0013749000    0.0007292300    0.0005387400
  -0.0014719500    0.0030810000    0.0008115700
  -0.0012564100   -0.0006665900    0.0001381300
  -0.0014175300   -0.0008069300   -0.0000695000
  -0.0011433600   -0.0017752500   -0.0007446100
   0.0020050300   -0.0183207000   -0.0041315800
   0.0016904100   -0.0000138000   -0.0000231500
   0.0003750000   -0.0000157300    0.0000009800
   0.0015970800   -0.0082808100    0.0020266900
  -0.0011420600   -0.0025370900    0.0003702000
   0.0035301400   -0.0025372400    0.0004124200
   0.0013474600   -0.0000369700   -0.0006066500
   0.0013952000   -0.0001098300   -0.0004058100
   0.0012145100   -0.0001103600   -0.0008311400
   0.0012448400   -0.0003496200   -0.0001276500
   0.0012534800   -0.0002537400   -0.0003150600
   0.0013652300   -0.0002531900   -0.0001589600
   0.0117828900    0.0012942600    0.0040891000
   0.0072318300    0.0002894500    0.0047285900
  -0.0021902300    0.0020872800    0.0009173600
   0.0081190700   -0.0011107100    0.0046963100
   0.0086348900   -0.0004101900    0.0045552100
   0.0093515100   -0.0013384400    0.0048523300
   0.0091076900    0.0002271400    0.0052787700
   0.0083686900    0.0001290400    0.0042177800
   0.0083846500    0.0001902100    0.0042728400
   0.0084115900   -0.0002052700    0.0041220600
   0.0083879700   -0.0001370300    0.0041971000
   0.0085274800   -0.0001935000    0.0042205100
  -0.0084658300    0.0002106000   -0.0053127600
  -0.0092560700    0.0000169600   -0.0046363800
  -0.0082243400    0.0000825600   -0.0043925300
  -0.0084245400   -0.0004090500   -0.0039744200
  -0.0081321000   -0.0001730300   -0.0042220200
  -0.0087229300   -0.0001081500   -0.0043665500
  -0.0088912900    0.0003377400   -0.0023286700
  -0.0088130100    0.0002048200   -0.0041106400
  -0.0069863200    0.0007580100   -0.0033985900
  -0.0076599400   -0.0007749100   -0.0048661300
  -0.0085052500   -0.0002059500   -0.0043699500
  -0.0096503000   -0.0007453600   -0.0047209100
   0.0127043200   -0.0000684300    0.0058251300
   0.0119519200   -0.0002564100    0.0040073300
   0.0111508200   -0.0001631900    0.0055787200
   0.0113542000    0.0009010200    0.0034701900
   0.0118496500    0.0002302800    0.0042016100
   0.0120065200    0.0008840200    0.0035018200
   0.0128196100   -0.0005387200    0.0034097000
   0.0111157000   -0.0006521000    0.0033618000
   0.0110050200   -0.0031562500   -0.0003239400
   0.0111538800    0.0005394700    0.0042600300
   0.0128054500    0.0006871800    0.0045463800
   0.0117682500    0.0024223600    0.0054752300
  -0.0160257500   -0.1354910100   -0.1076493400
  -0.0128613900   -0.0014074500   -0.0056358500
  -0.0076136400   -0.0013313300   -0.0054641000
  -0.0122858600    0.0051222500   -0.0058235200
  -0.0115353900    0.0019127000   -0.0044841800
  -0.0122109800    0.0018797100   -0.0046215700
  -0.0115848700   -0.0004621400   -0.0039493400
  -0.0124857300   -0.0003473800   -0.0040267500
  -0.0116570900   -0.0003199600   -0.0037189000
  -0.0118562500    0.0005378700   -0.0039113300
  -0.0116730400    0.0003823000   -0.0038079400
  -0.0117601000    0.0003429400   -0.0039207600
  -0.0012439900   -0.0038460100    0.0003233600
  -0.0004606600   -0.0008066100   -0.0004566500
  -0.0022834000   -0.0036317600   -0.0005919600
  -0.0042586300    0.0031308700   -0.0007501700
  -0.0005170400    0.0006650200   -0.0005512600
   0.0025177300    0.0038371900   -0.0009733500
  -0.0006727900   -0.0002618300   -0.0002250900
  -0.0006259400   -0.0001894400   -0.0002363700
  -0.0008243400   -0.0003791900   -0.0006381200
  -0.0007821000    0.0002428100   -0.0004542800
  -0.0006190800    0.0001820000   -0.0002238700
  -0.0006740100    0.0002568700    0.0002360200
   0.0002469200   -0.0075186500    0.0025357100
   0.0007413300   -0.0007983600    0.0002422700
   0.0008501700   -0.0007741900   -0.0000556400
   0.0006285600    0.0017690300    0.0013614100
   0.0009636600    0.0007727200    0.0008219200
   0.0005220100    0.0007325700    0.0007323000
  -0.0004768800   -0.0010354200    0.0018562800
   0.0008641900   -0.0003687700    0.0007154600
   0.0015057100   -0.0009144600    0.0028002800
   0.0008265500    0.0011291800    0.0000271800
   0.0008225900    0.0003635000    0.0002352100
   0.0004474200    0.0009579300    0.0000561400

1    
 -0.0028450308385456   0.0000000000000000   0.0095867512499138
   0.0054988900   -0.0953735600   -0.1186135600
   0.0011818200   -0.0007825400   -0.0016456100
   0.0008816500   -0.0011630400   -0.0017374700
   0.0013181500    0.0012063400   -0.0007811000
   0.0011981600    0.0003582100   -0.0006194600
   0.0014408100    0.0007111000   -0.0005481700
   0.0009745000    0.0001481600    0.0009091300
   0.0016348000    0.0004403900    0.0005201600
   0.0013992500    0.0001119900    0.0004502600
   0.0010691100    0.0003296300    0.0004579200
   0.0013826100    0.0002859700    0.0002049400
   0.0014168600    0.0002951700    0.0002149000
  -0.0008177800    0.0010571400   -0.0002376000
  -0.0013422600    0.0002520400    0.0000352100
  -0.0017884400    0.0015578800    0.0001995200
   0.0000886900   -0.0014767400    0.0000332000
  -0.0013261300   -0.0000238000    0.0000408700
  -0.0024555800   -0.0013143600    0.0000088900
  -0.0015267200    0.0000536400    0.0007860400
  -0.0011663800   -0.0000171800    0.0006951300
  -0.0015017600   -0.0009343200    0.0019900700
  -0.0016833700    0.0003967700    0.0007397000
  -0.0009825100    0.0002572700    0.0007497800
  -0.0009759800    0.0021086800    0.0021385800
   0.0023260200    0.0017917400    0.0032369500
  -0.0013297900   -0.0002414300   -0.0000739400
  -0.0055598500    0.0017578000    0.0049600100
  -0.0011659900   -0.0002834700   -0.0001936000
  -0.0013236500   -0.0000397400    0.0001082100
  -0.0014475200   -0.0002962600   -0.0002837800
  -0.0016755100   -0.0004644000    0.0007429200
  -0.0010420900   -0.0004070100    0.0006962600
  -0.0013140800   -0.0007041500    0.0017091300
  -0.0015139800    0.0000115400    0.0007503700
  -0.0010853300    0.0001652600    0.0007485700
  -0.0013223900    0.0008873000    0.0012753500
   0.0024080800   -0.0039252000   -0.0164367100
   0.0010680200    0.0003997200   -0.0013707300
   0.0016763600    0.0000033400   -0.0011911300
   0.0019013500    0.0019798300   -0.0025129600
   0.0012563000   -0.0001139900   -0.0005693200
  -0.0001196800    0.0011788800   -0.0009807800
   0.0009565600   -0.0004629100    0.0009854700
   0.0015695200   -0.0006408100    0.0005638200
   0.0014344700   -0.0002815700    0.0005234600
   0.0010634300    0.0000282600    0.0005019100
   0.0014095700   -0.0000375500    0.0001974800
   0.0014158000   -0.0001549400    0.0001988200
   0.0039550000    0.0002349800    0.0036663200
   0.0090205700   -0.0001146900    0.0038372900
   0.0185704900   -0.0027140200   -0.0010868300
   0.0083177800    0.0001596700    0.0040026700
   0.0081386200    0.0001360700    0.0040520600
   0.0084686100    0.0004367500    0.0036892300
   0.0098132100    0.0001650100    0.0066742100
   0.0090835900   -0.0000689300    0.0045513800
   0.0079666400   -0.0001208700    0.0048218700
   0.0086916300    0.0001402000    0.0045870200
   0.0088245600    0.0000700100    0.0044994500
   0.0082756700    0.0001227400    0.0046516000
  -0.0083075900    0.0008588100   -0.0026715500
  -0.0070756700    0.0003704700   -0.0038592600
  -0.0093073700    0.0000972300   -0.0040105500
  -0.0088845200   -0.0010190900   -0.0039024800
  -0.0079470700   -0.0001141900   -0.0041314800
  -0.0087286300   -0.0000462300   -0.0041165100
  -0.0096042100   -0.0006589900   -0.0038719100
  -0.0086603700   -0.0001162500   -0.0042553900
  -0.0073085900   -0.0004190600   -0.0049614000
  -0.0093992000    0.0008699400   -0.0041553700
  -0.0086170800    0.0001196200   -0.0042302500
  -0.0073395900    0.0004978900   -0.0041680200
   0.0100847000   -0.0024384600    0.0023022300
   0.0117288700   -0.0000017600    0.0043323300
   0.0128722600   -0.0026140000    0.0018229000
   0.0111468700    0.0009900400    0.0035808000
   0.0116869800    0.0000192700    0.0040743900
   0.0126757700    0.0009142300    0.0038157900
   0.0126751800    0.0003147100    0.0037473800
   0.0116136700    0.0004058500    0.0037495100
   0.0114767700   -0.0001141800    0.0033187100
   0.0126002000   -0.0003637700    0.0037027500
   0.0110069200   -0.0003817100    0.0035387700
   0.0114644900   -0.0030630800    0.0035577400
  -0.0164808100    0.1057613200    0.1213264400
  -0.0097175800    0.0001629500   -0.0021570600
  -0.0149917000    0.0006516000   -0.0021317400
  -0.0117264000   -0.0011222800   -0.0026129200
  -0.0115233800   -0.0001669000   -0.0037093100
  -0.0116358500   -0.0009344900   -0.0031123200
  -0.0109573500    0.0002719100   -0.0055598300
  -0.0138134400    0.0001990000   -0.0052031100
  -0.0119251800    0.0001398900   -0.0048429100
  -0.0115831300   -0.0003675700   -0.0048199600
  -0.0122011800   -0.0002519800   -0.0045480800
  -0.0119320300   -0.0001080500   -0.0045818100
  -0.0073238500   -0.0036673000    0.0035946500
  -0.0003707300    0.0004293400    0.0002676200
   0.0022323300   -0.0015512400    0.0035990600
   0.0001969000   -0.0009793900    0.0011035500
  -0.0006091300   -0.0003985300    0.0001659400
  -0.0016081500   -0.0013852500    0.0012360900
  -0.0006121600   -0.0001929200   -0.0018213200
  -0.0011157000   -0.0000326400   -0.0012408700
  -0.0004193600   -0.0000450100   -0.0019953000
  -0.0005644900    0.0002083200   -0.0013771100
  -0.0010755100    0.0000357200   -0.0010700500
  -0.0005013500   -0.0000864400   -0.0018442100
  -0.0007285200    0.0021531700    0.0013347300
  -0.0003167200    0.0004660800    0.0011558100
   0.0021034800    0.0007509000    0.0009839400
   0.0004814400   -0.0010745900    0.0007512100
   0.0003543100   -0.0002999300    0.0008102200
   0.0012938100   -0.0005086800    0.0005468400
   0.0027654100    0.0004117900   -0.0024938200
   0.0006398400    0.0000545900   -0.0005642700
  -0.0008995400    0.0002941300   -0.0019094800
   0.0014076400    0.0000684700   -0.0001672000
   0.0006853400   -0.0000566900    0.0000017600
  -0.0000104000   -0.0000185900    0.0001523500

1    
  0.0028450308385456   0.0000000000000000  -0.0095867512499138
  -0.0022697000    0.0999414800    0.1200199100
   0.0014021600    0.0010778100    0.0010572700
   0.0017141700    0.0014584800    0.0011470400
   0.0012734500   -0.0009164200    0.0001917700
   0.0013921200   -0.0000700300    0.0000288800
   0.0011521800   -0.0004216700   -0.0000429000
   0.0016148600    0.0001460100   -0.0014910300
   0.0009610900   -0.0001442900   -0.0011015100
   0.0011924300    0.0001792200   -0.0010328400
   0.0015226300   -0.0000391100   -0.0010430900
   0.0012101100    0.0000040400   -0.0007905500
   0.0011741100   -0.0000055400   -0.0008016100
  -0.0017727000   -0.0007617300    0.0008176300
  -0.0012512000    0.0000397800    0.0005520000
  -0.0008079600   -0.0012587300    0.0003779700
  -0.0026660300    0.0017561600    0.0005536700