   64   64    1    1
  0.1738377E+02  0.1036195E-08  0.1036195E-08  0.1036195E-08  0.5000000E-15
  1.000000000000000E-004
  CAR 
 unknown system                          
    448      6    268
 
  0.0000000E+00  0.0000000E+00  0.0000000E+00  0.1250000E+00
    1      -37.649565
    2      -37.649077
    3      -37.649077
    4      -37.643373
    5      -37.643363
    6      -37.643363
    7      -37.643135
    8      -37.642245
    9      -37.642226
   10      -37.642226
   11      -37.641731
   12      -37.641445
   13      -37.641445
   14      -37.641396
   15      -37.641396
   16      -37.641373
   17      -37.641367
   18      -37.641145
   19      -37.641144
   20      -37.640760
   21      -37.640756
   22      -37.640697
   23      -37.640697
   24      -37.640466
   25      -37.640466
   26      -37.640387
   27      -37.640387
   28      -37.640277
   29      -37.640277
   30      -37.640271
   31      -37.640144
   32      -37.639877
   33      -37.639545
   34      -37.639545
   35      -37.639381
   36      -37.639214
   37      -37.639191
   38      -37.639174
   39      -37.639032
   40      -37.639032
   41      -37.639008
   42      -37.638876
   43      -37.638832
   44      -37.638832
   45      -37.638813
   46      -37.638813
   47      -37.638800
   48      -37.638800
   49      -37.638798
   50      -37.638798
   51      -37.638719
   52      -37.638719
   53      -37.638609
   54      -37.638609
   55      -37.638588
   56      -37.638582
   57      -37.638541
   58      -37.638480
   59      -37.637947
   60      -37.637947
   61      -37.637915
   62      -37.637915
   63      -37.637624
   64      -37.637508
   65      -37.637351
   66      -37.637351
   67      -37.637262
   68      -37.637150
   69      -37.637150
   70      -37.637074
   71      -37.637074
   72      -37.636793
   73      -37.636789
   74      -37.636738
   75      -37.636738
   76      -37.636728
   77      -37.636727
   78      -37.636682
   79      -37.636682
   80      -37.636491
   81      -37.636489
   82      -37.636485
   83      -37.636472
   84      -37.636335
   85      -37.636335
   86      -37.636310
   87      -37.636310
   88      -37.636119
   89      -37.636119
   90      -37.636020
   91      -37.635537
   92      -37.635194
   93      -37.635194
   94      -37.628614
   95      -37.628614
   96      -37.628118
   97       -9.173155
   98       -8.408390
   99       -8.407721
  100       -8.407717
  101       -8.407717
  102       -8.407715
  103       -8.407049
  104       -7.887558
  105       -7.886737
  106       -7.886737
  107       -7.885642
  108       -7.885632
  109       -7.885632
  110       -7.885632
  111       -7.885631
  112       -7.885621
  113       -7.884560
  114       -7.884560
  115       -7.883734
  116       -7.802469
  117       -7.802451
  118       -7.802437
  119       -7.802437
  120       -7.424316
  121       -7.424266
  122       -7.424247
  123       -7.374044
  124       -7.373262
  125       -7.373257
  126       -7.373257
  127       -7.373239
  128       -7.372417
  129       -1.377195
  130       -1.377195
  131       -1.377191
  132       -1.377191
  133       -0.731765
  134       -0.731765
  135       -0.731762
  136       -0.210884
  137       -0.209358
  138       -0.209358
  139       -0.209134
  140       -0.209117
  141       -0.209109
  142       -0.209108
  143       -0.209108
  144       -0.209087
  145       -0.208860
  146       -0.208860
  147       -0.207348
  148        0.252004
  149        0.252004
  150        0.252956
  151        0.252956
  152        0.253292
  153        0.253292
  154        0.253295
  155        0.253309
  156        0.253629
  157        0.253629
  158        0.254571
  159        0.254571
  160        0.968373
  161        0.968933
  162        0.968933
  163        0.968939
  164        0.968939
  165        0.969496
  166        1.154634
  167        1.156237
  168        1.156237
  169        1.156355
  170        1.156359
  171        1.157692
  172        1.169614
  173        1.169614
  174        1.171482
  175        1.171602
  176        1.171604
  177        1.171604
  178        1.171604
  179        1.171606
  180        1.171726
  181        1.171987
  182        1.173728
  183        1.173728
  184        1.853878
  185        1.853878
  186        1.853883
  187        1.853884
  188        1.853901
  189        1.853901
  190        2.582633
  191        2.582633
  192        2.584088
  193        2.584088
  194        2.584238
  195        2.584263
  196        2.584264
  197        2.584265
  198        2.584436
  199        2.584436
  200        2.585910
  201        2.585910
  202        2.928807
  203        2.929622
  204        2.930405
  205        2.930412
  206        2.930412
  207        2.930465
  208        2.930482
  209        2.930482
  210        2.930526
  211        2.930526
  212        2.931230
  213        2.932095
  214        2.971817
  215        2.971817
  216        2.971822
  217        2.971842
  218        2.971842
  219        2.971867
  220        2.971882
  221        2.971897
  222        3.587795
  223        3.587808
  224        3.587808
  225        6.323008
  226        6.323019
  227        6.323029
  228        7.283684
  229        7.788895
  230        7.788895
  231        7.788899
  232        8.007435
  233        8.007455
  234        8.007455
  235        8.007462
  236        8.574068
  237        8.575424
  238        8.575424
  239        8.575439
  240        8.575448
  241        8.576729
  242        8.849526
  243        8.852178
  244        8.852178
  245        8.852230
  246        8.852242
  247        8.854943
  248        9.040093
  249        9.040939
  250        9.040940
  251        9.040956
  252        9.040956
  253        9.041777
  254        9.183749
  255        9.183822
  256        9.183822
  257        9.184289
  258        9.184513
  259        9.184540
  260        9.184540
  261        9.184550
  262        9.184800
  263        9.185267
  264        9.185267
  265        9.185330
  266       10.431536
  267       10.431553
  268       10.431568
 
  0.5000000E+00  0.0000000E+00  0.0000000E+00  0.1250000E+00
    1      -37.649515
    2      -37.649031
    3      -37.649031
    4      -37.643076
    5      -37.643076
    6      -37.642681
    7      -37.642611
    8      -37.642163
    9      -37.642029
   10      -37.641896
   11      -37.641896
   12      -37.641770
   13      -37.641690
   14      -37.641497
   15      -37.641497
   16      -37.641393
   17      -37.641393
   18      -37.641259
   19      -37.641259
   20      -37.641224
   21      -37.641224
   22      -37.641160
   23      -37.641141
   24      -37.640919
   25      -37.640553
   26      -37.640547
   27      -37.640258
   28      -37.640258
   29      -37.640153
   30      -37.640004
   31      -37.639858
   32      -37.639750
   33      -37.639667
   34      -37.639640
   35      -37.639640
   36      -37.639590
   37      -37.639590
   38      -37.639524
   39      -37.639522
   40      -37.639289
   41      -37.639289
   42      -37.639085
   43      -37.639085
   44      -37.638923
   45      -37.638624
   46      -37.638618
   47      -37.638532
   48      -37.638531
   49      -37.638261
   50      -37.638261
   51      -37.638122
   52      -37.638038
   53      -37.638038
   54      -37.637932
   55      -37.637929
   56      -37.637887
   57      -37.637831
   58      -37.637714
   59      -37.637714
   60      -37.637683
   61      -37.637682
   62      -37.637682
   63      -37.637679
   64      -37.637664
   65      -37.637664
   66      -37.637398
   67      -37.637398
   68      -37.637310
   69      -37.637104
   70      -37.637104
   71      -37.637068
   72      -37.636904
   73      -37.636899
   74      -37.636733
   75      -37.636677
   76      -37.636676
   77      -37.636671
   78      -37.636671
   79      -37.636623
   80      -37.636504
   81      -37.636504
   82      -37.636502
   83      -37.636501
   84      -37.636338
   85      -37.636338
   86      -37.636211
   87      -37.636211
   88      -37.636140
   89      -37.636140
   90      -37.635981
   91      -37.635899
   92      -37.635235
   93      -37.635235
   94      -37.628576
   95      -37.628576
   96      -37.628074
   97       -8.964795
   98       -8.963948
   99       -8.257012
  100       -8.256988
  101       -8.256988
  102       -8.256431
  103       -8.255928
  104       -8.255352
  105       -8.255352
  106       -8.255324
  107       -7.846404
  108       -7.846404
  109       -7.844921
  110       -7.844764
  111       -7.844737
  112       -7.844593
  113       -7.843098
  114       -7.843098
  115       -7.746924
  116       -7.744245
  117       -7.520930
  118       -7.519855
  119       -7.519855
  120       -7.519845
  121       -7.518191
  122       -7.518170
  123       -7.518170
  124       -7.517067
  125       -7.400687
  126       -7.399044
  127       -7.398932
  128       -7.397281
  129       -0.940659
  130       -0.940531
  131       -0.939551
  132       -0.939551
  133       -0.939375
  134       -0.939375
  135       -0.938401
  136       -0.938275
  137       -0.476108
  138       -0.476108
  139       -0.475361
  140       -0.475361
  141       -0.252316
  142       -0.250324
  143       -0.227654
  144       -0.225952
  145       -0.225952
  146       -0.225693
  147       -0.225466
  148       -0.225210
  149       -0.225210
  150       -0.223377
  151        0.435343
  152        0.436157
  153        0.436161
  154        0.436161
  155        0.437170
  156        0.437170
  157        0.437181
  158        0.438001
  159        0.493376
  160        0.493393
  161        0.494098
  162        0.494098
  163        0.494168
  164        0.494168
  165        0.494872
  166        0.494889
  167        1.258568
  168        1.258568
  169        1.261551
  170        1.261551
  171        1.467961
  172        1.468959
  173        1.469410
  174        1.470426
  175        2.049067
  176        2.049067
  177        2.049931
  178        2.049931
  179        2.075142
  180        2.075142
  181        2.076646
  182        2.076729
  183        2.078102
  184        2.078184
  185        2.079475
  186        2.079475
  187        2.082795
  188        2.085086
  189        2.085086
  190        2.085169
  191        2.085671
  192        2.085997
  193        2.085997
  194        2.087885
  195        2.177944
  196        2.177944
  197        2.178357
  198        2.179329
  199        2.179944
  200        2.181058
  201        2.181402
  202        2.181402
  203        2.551631
  204        2.552933
  205        2.883341
  206        2.883410
  207        2.883410
  208        2.883974
  209        2.884433
  210        2.885002
  211        2.885002
  212        2.885078
  213        2.949187
  214        2.949392
  215        2.950941
  216        2.950941
  217        2.951002
  218        2.951002
  219        2.952531
  220        2.952740
  221        3.248720
  222        3.248720
  223        3.251502
  224        3.251502
  225        6.966431
  226        6.968063
  227        7.358777
  228        7.361406
  229        7.361854
  230        7.364459
  231        8.107637
  232        8.108626
  233        8.443429
  234        8.446275
  235        8.798766
  236        8.798766
  237        8.799067
  238        8.800054
  239        8.801360
  240        8.801906
  241        8.802450
  242        8.802450
  243        8.824942
  244        8.824942
  245        8.825497
  246        8.826199
  247        8.826299
  248        8.827349
  249        8.827660
  250        8.827660
  251        8.921934
  252        8.921934
  253        8.924538
  254        8.924538
  255        9.370845
  256        9.374135
  257        9.374135
  258        9.374835
  259        9.375072
  260        9.375750
  261        9.375750
  262        9.379014
  263        9.941696
  264        9.943372
  265        9.944635
  266        9.949024
  267        9.952573
  268        9.977153
 
  0.0000000E+00  0.5000000E+00  0.0000000E+00  0.2500000E+00
    1      -37.649520
    2      -37.649027
    3      -37.649021
    4      -37.642786
    5      -37.642759
    6      -37.642562
    7      -37.642526
    8      -37.642520
    9      -37.642487
   10      -37.642486
   11      -37.642266
   12      -37.642061
   13      -37.642000
   14      -37.641975
   15      -37.641445
   16      -37.641184
   17      -37.641141
   18      -37.641040
   19      -37.640993
   20      -37.640909
   21      -37.640795
   22      -37.640668
   23      -37.640610
   24      -37.640558
   25      -37.640432
   26      -37.640298
   27      -37.640206
   28      -37.640198
   29      -37.639989
   30      -37.639966
   31      -37.639956
   32      -37.639932
   33      -37.639926
   34      -37.639831
   35      -37.639816
   36      -37.639807
   37      -37.639706
   38      -37.639625
   39      -37.639408
   40      -37.639389
   41      -37.639375
   42      -37.639235
   43      -37.639226
   44      -37.638893
   45      -37.638802
   46      -37.638658
   47      -37.638640
   48      -37.638614
   49      -37.638382
   50      -37.638367
   51      -37.638261
   52      -37.638233
   53      -37.638195
   54      -37.637882
   55      -37.637880
   56      -37.637813
   57      -37.637807
   58      -37.637770
   59      -37.637523
   60      -37.637521
   61      -37.637501
   62      -37.637458
   63      -37.637387
   64      -37.637339
   65      -37.637337
   66      -37.637335
   67      -37.637310
   68      -37.637283
   69      -37.637257
   70      -37.637229
   71      -37.637224
   72      -37.637104
   73      -37.637063
   74      -37.637029
   75      -37.637026
   76      -37.636868
   77      -37.636704
   78      -37.636670
   79      -37.636639
   80      -37.636632
   81      -37.636581
   82      -37.636477
   83      -37.636381
   84      -37.636381
   85      -37.636364
   86      -37.636117
   87      -37.636069
   88      -37.635825
   89      -37.635723
   90      -37.635702
   91      -37.635624
   92      -37.635596
   93      -37.635575
   94      -37.628577
   95      -37.628572
   96      -37.628080
   97       -8.964374
   98       -8.964369
   99       -8.257513
  100       -8.256718
  101       -8.256177
  102       -8.256172
  103       -8.256167
  104       -8.256167
  105       -8.255620
  106       -8.254847
  107       -7.845904
  108       -7.844784
  109       -7.844761
  110       -7.844751
  111       -7.844749
  112       -7.844744
  113       -7.844721
  114       -7.843617
  115       -7.745586
  116       -7.745586
  117       -7.519579
  118       -7.519433
  119       -7.519015
  120       -7.519014
  121       -7.519004
  122       -7.518995
  123       -7.518613
  124       -7.518449
  125       -7.398989
  126       -7.398983
  127       -7.398982
  128       -7.398950
  129       -0.940461
  130       -0.939833
  131       -0.939629
  132       -0.939471
  133       -0.939462
  134       -0.939300
  135       -0.939097
  136       -0.938480
  137       -0.475736
  138       -0.475736
  139       -0.475732
  140       -0.475728
  141       -0.251290
  142       -0.251267
  143       -0.226380
  144       -0.225999
  145       -0.225584
  146       -0.225578
  147       -0.225578
  148       -0.225574
  149       -0.225127
  150       -0.224766
  151        0.435744
  152        0.436356
  153        0.436635
  154        0.436664
  155        0.436666
  156        0.436667
  157        0.436986
  158        0.437570
  159        0.492018
  160        0.494066
  161        0.494133
  162        0.494135
  163        0.494136
  164        0.494174
  165        0.494200
  166        0.496271
  167        1.260044
  168        1.260046
  169        1.260052
  170        1.260056
  171        1.469177
  172        1.469192
  173        1.469196
  174        1.469213
  175        2.049448
  176        2.049449
  177        2.049504
  178        2.049531
  179        2.075456
  180        2.077099
  181        2.077133
  182        2.077369
  183        2.077407
  184        2.077407
  185        2.077459
  186        2.079248
  187        2.084557
  188        2.084984
  189        2.085422
  190        2.085424
  191        2.085460
  192        2.085646
  193        2.086131
  194        2.086583
  195        2.177688
  196        2.179387
  197        2.179430
  198        2.179622
  199        2.179659
  200        2.179843
  201        2.179898
  202        2.181652
  203        2.552280
  204        2.552289
  205        2.882754
  206        2.883213
  207        2.884188
  208        2.884203
  209        2.884205
  210        2.884207
  211        2.885196
  212        2.885715
  213        2.949824
  214        2.950956
  215        2.950961
  216        2.950961
  217        2.950963
  218        2.950966
  219        2.951002
  220        2.952137
  221        3.250103
  222        3.250105
  223        3.250108
  224        3.250122
  225        6.967234
  226        6.967239
  227        7.361613
  228        7.361616
  229        7.361627
  230        7.361636
  231        8.108110
  232        8.108130
  233        8.444830
  234        8.444856
  235        8.798333
  236        8.800409
  237        8.800467
  238        8.800701
  239        8.800703
  240        8.800710
  241        8.800894
  242        8.802678
  243        8.825049
  244        8.825091
  245        8.825276
  246        8.826098
  247        8.826396
  248        8.827447
  249        8.827455
  250        8.827665
  251        8.923220
  252        8.923245
  253        8.923247
  254        8.923267
  255        9.373316
  256        9.374645
  257        9.374946
  258        9.374947
  259        9.374949
  260        9.374973
  261        9.375249
  262        9.376563
  263        9.943188
  264        9.943572
  265        9.946283
  266        9.947716
  267        9.949342
  268        9.964737
 
  0.5000000E+00  0.5000000E+00  0.0000000E+00  0.2500000E+00
    1      -37.649528
    2      -37.649044
    3      -37.649033
    4      -37.642642
    5      -37.642630
    6      -37.642510
    7      -37.642508
    8      -37.642270
    9      -37.642259
   10      -37.642236
   11      -37.642203
   12      -37.641989
   13      -37.641887
   14      -37.641847
   15      -37.641516
   16      -37.641463
   17      -37.641443
   18      -37.641352
   19      -37.641258
   20      -37.641228
   21      -37.641186
   22      -37.641023
   23      -37.640910
   24      -37.640805
   25      -37.640793
   26      -37.640786
   27      -37.640559
   28      -37.640485
   29      -37.640454
   30      -37.640440
   31      -37.640178
   32      -37.639878
   33      -37.639854
   34      -37.639684
   35      -37.639588
   36      -37.639299
   37      -37.639148
   38      -37.639086
   39      -37.638980
   40      -37.638872
   41      -37.638766
   42      -37.638739
   43      -37.638691
   44      -37.638673
   45      -37.638645
   46      -37.638642
   47      -37.638427
   48      -37.638351
   49      -37.638274
   50      -37.638242
   51      -37.638216
   52      -37.638199
   53      -37.638196
   54      -37.638136
   55      -37.638109
   56      -37.638081
   57      -37.637953
   58      -37.637923
   59      -37.637903
   60      -37.637797
   61      -37.637760
   62      -37.637718
   63      -37.637552
   64      -37.637511
   65      -37.637384
   66      -37.637325
   67      -37.637266
   68      -37.637264
   69      -37.637250
   70      -37.637247
   71      -37.637193
   72      -37.637116
   73      -37.637115
   74      -37.637097
   75      -37.637069
   76      -37.636970
   77      -37.636866
   78      -37.636845
   79      -37.636830
   80      -37.636678
   81      -37.636640
   82      -37.636550
   83      -37.636467
   84      -37.636452
   85      -37.636395
   86      -37.636183
   87      -37.636078
   88      -37.635730
   89      -37.635655
   90      -37.635598
   91      -37.635582
   92      -37.635497
   93      -37.635436
   94      -37.628601
   95      -37.628584
   96      -37.628088
   97       -8.769261
   98       -8.769072
   99       -8.768358
  100       -8.768156
  101       -8.132212
  102       -8.131680
  103       -8.131152
  104       -8.130874
  105       -8.130863
  106       -8.130562
  107       -8.130038
  108       -8.129512
  109       -7.672401
  110       -7.671240
  111       -7.671068
  112       -7.670506
  113       -7.669958
  114       -7.669406
  115       -7.669247
  116       -7.668109
  117       -7.602476
  118       -7.602401
  119       -7.601826
  120       -7.601268
  121       -7.600721
  122       -7.600154
  123       -7.599584
  124       -7.599433
  125       -7.422696
  126       -7.422013
  127       -7.420880
  128       -7.420185
  129       -0.841053
  130       -0.841004
  131       -0.840889
  132       -0.840645
  133       -0.840290
  134       -0.840063
  135       -0.839933
  136       -0.839886
  137       -0.277236
  138       -0.275879
  139       -0.275804
  140       -0.275418
  141       -0.275151
  142       -0.274749
  143       -0.274698
  144       -0.273457
  145       -0.266180
  146       -0.265772
  147       -0.265570
  148       -0.265541
  149       -0.264457
  150       -0.264419
  151       -0.264148
  152       -0.263625
  153       -0.223646
  154       -0.223324
  155       -0.222887
  156       -0.222571
  157        0.304035
  158        0.304384
  159        0.305839
  160        0.306194
  161        1.372542
  162        1.373458
  163        1.373546
  164        1.373584
  165        1.374170
  166        1.374177
  167        1.374307
  168        1.375209
  169        1.474203
  170        1.476356
  171        1.476397
  172        1.476809
  173        1.477408
  174        1.477813
  175        1.477859
  176        1.480060
  177        1.591959
  178        1.592438
  179        1.592971
  180        1.593464
  181        1.942167
  182        1.943426
  183        1.944043
  184        1.944115
  185        1.944836
  186        1.944901
  187        1.945522
  188        1.946750
  189        2.180187
  190        2.180312
  191        2.180948
  192        2.181051
  193        2.392616
  194        2.394048
  195        2.394247
  196        2.394448
  197        2.394992
  198        2.395202
  199        2.395397
  200        2.396815
  201        2.634450
  202        2.634889
  203        2.635159
  204        2.635328
  205        2.636196
  206        2.636343
  207        2.636621
  208        2.637029
  209        2.765809
  210        2.765874
  211        2.765945
  212        2.766366
  213        2.766560
  214        2.766916
  215        2.766980
  216        2.767060
  217        2.843731
  218        2.845451
  219        2.846546
  220        2.848322
  221        3.473600
  222        3.473840
  223        3.474497
  224        3.474722
  225        7.425816
  226        7.426061
  227        7.427458
  228        7.427689
  229        7.905743
  230        7.908133
  231        7.908344
  232        7.908381
  233        7.909128
  234        7.909158
  235        7.909349
  236        7.911760
  237        8.776949
  238        8.778188
  239        8.778376
  240        8.778648
  241        8.778826
  242        8.779061
  243        8.779180
  244        8.780474
  245        8.946098
  246        8.947216
  247        8.949639
  248        8.950685
  249        9.121276
  250        9.123485
  251        9.123527
  252        9.123857
  253        9.124289
  254        9.124610
  255        9.124662
  256        9.126542
  257        9.191350
  258        9.194066
  259        9.194344
  260        9.194642
  261        9.194940
  262        9.195244
  263        9.195526
  264        9.198535
  265        9.603345
  266        9.603690
  267        9.603831
  268        9.604646
 
  0.0000000E+00  0.5000000E+00  0.5000000E+00  0.1250000E+00
    1      -37.649537
    2      -37.649033
    3      -37.649033
    4      -37.642937
    5      -37.642864
    6      -37.642283
    7      -37.642283
    8      -37.642184
    9      -37.642020
   10      -37.641959
   11      -37.641959
   12      -37.641955
   13      -37.641955
   14      -37.641815
   15      -37.641747
   16      -37.641672
   17      -37.641529
   18      -37.641527
   19      -37.641527
   20      -37.641524
   21      -37.640991
   22      -37.640873
   23      -37.640840
   24      -37.640794
   25      -37.640794
   26      -37.640707
   27      -37.640707
   28      -37.640463
   29      -37.640403
   30      -37.640403
   31      -37.639919
   32      -37.639902
   33      -37.639822
   34      -37.639527
   35      -37.639527
   36      -37.639359
   37      -37.639312
   38      -37.639089
   39      -37.639089
   40      -37.638838
   41      -37.638669
   42      -37.638659
   43      -37.638659
   44      -37.638656
   45      -37.638595
   46      -37.638582
   47      -37.638581
   48      -37.638581
   49      -37.638576
   50      -37.638532
   51      -37.638513
   52      -37.638513
   53      -37.638217
   54      -37.638212
   55      -37.638151
   56      -37.638151
   57      -37.637944
   58      -37.637935
   59      -37.637935
   60      -37.637930
   61      -37.637496
   62      -37.637391
   63      -37.637391
   64      -37.637209
   65      -37.637209
   66      -37.637098
   67      -37.637094
   68      -37.637087
   69      -37.637056
   70      -37.637025
   71      -37.637025
   72      -37.637022
   73      -37.637016
   74      -37.636918
   75      -37.636917
   76      -37.636917
   77      -37.636914
   78      -37.636847
   79      -37.636824
   80      -37.636761
   81      -37.636761
   82      -37.636718
   83      -37.636718
   84      -37.636517
   85      -37.636413
   86      -37.636327
   87      -37.636223
   88      -37.635935
   89      -37.635935
   90      -37.635924
   91      -37.635924
   92      -37.635151
   93      -37.635078
   94      -37.628584
   95      -37.628584
   96      -37.628103
   97       -8.768719
   98       -8.768710
   99       -8.768710
  100       -8.768708
  101       -8.132911
  102       -8.130880
  103       -8.130880
  104       -8.130858
  105       -8.130856
  106       -8.130836
  107       -8.130836
  108       -8.128836
  109       -7.670346
  110       -7.670270
  111       -7.670270
  112       -7.670236
  113       -7.670233
  114       -7.670231
  115       -7.670231
  116       -7.670231
  117       -7.600998
  118       -7.600998
  119       -7.600996
  120       -7.600990
  121       -7.600990
  122       -7.600955
  123       -7.600955
  124       -7.600883
  125       -7.421449
  126       -7.421444
  127       -7.421444
  128       -7.421421
  129       -0.841082
  130       -0.841082
  131       -0.840479
  132       -0.840471
  133       -0.840469
  134       -0.840468
  135       -0.839855
  136       -0.839855
  137       -0.275352
  138       -0.275298
  139       -0.275291
  140       -0.275291
  141       -0.275269
  142       -0.275269
  143       -0.275269
  144       -0.275269
  145       -0.266620
  146       -0.265196
  147       -0.265196
  148       -0.264998
  149       -0.264961
  150       -0.264780
  151       -0.264780
  152       -0.263459
  153       -0.223109
  154       -0.223101
  155       -0.223101
  156       -0.222923
  157        0.305101
  158        0.305115
  159        0.305115
  160        0.305115
  161        1.372456
  162        1.372456
  163        1.373861
  164        1.373878
  165        1.373880
  166        1.373884
  167        1.375266
  168        1.375266
  169        1.477101
  170        1.477101
  171        1.477102
  172        1.477107
  173        1.477108
  174        1.477109
  175        1.477109
  176        1.477112
  177        1.592710
  178        1.592710
  179        1.592735
  180        1.592735
  181        1.944461
  182        1.944473
  183        1.944473
  184        1.944476
  185        1.944478
  186        1.944479
  187        1.944514
  188        1.944514
  189        2.180612
  190        2.180612
  191        2.180614
  192        2.180615
  193        2.394303
  194        2.394303
  195        2.394720
  196        2.394725
  197        2.394725
  198        2.394725
  199        2.395157
  200        2.395157
  201        2.634384
  202        2.635002
  203        2.635002
  204        2.635728
  205        2.635776
  206        2.636497
  207        2.636497
  208        2.637115
  209        2.765404
  210        2.765404
  211        2.766393
  212        2.766423
  213        2.766427
  214        2.766457
  215        2.767445
  216        2.767445
  217        2.845997
  218        2.846016
  219        2.846032
  220        2.846032
  221        3.474163
  222        3.474163
  223        3.474178
  224        3.474178
  225        7.426758
  226        7.426758
  227        7.426764
  228        7.426775
  229        7.908663
  230        7.908742
  231        7.908742
  232        7.908751
  233        7.908751
  234        7.908751
  235        7.908751
  236        7.908766
  237        8.778082
  238        8.778515
  239        8.778715
  240        8.778715
  241        8.778746
  242        8.778746
  243        8.778923
  244        8.779396
  245        8.948352
  246        8.948407
  247        8.948407
  248        8.948423
  249        9.123835
  250        9.123835
  251        9.124072
  252        9.124075
  253        9.124085
  254        9.124137
  255        9.124310
  256        9.124310
  257        9.194715
  258        9.194765
  259        9.194765
  260        9.194789
  261        9.194793
  262        9.194793
  263        9.194795
  264        9.194799
  265        9.602854
  266        9.603392
  267        9.603813
  268        9.604142
 