<?xml version="1.0" encoding="ISO-8859-1"?>
<modeling>
 <generator>
  <i name="program" type="string">vasp </i>
  <i name="version" type="string">5.3.5  </i>
  <i name="subversion" type="string">31Mar14 (build Nov 07 2014 11:36:17) complex                          parallel </i>
  <i name="platform" type="string">LinuxIFC </i>
  <i name="date" type="string">2015 10 15 </i>
  <i name="time" type="string">02:20:21 </i>
 </generator>
 <incar>
  <i type="string" name="PREC">accurate</i>
  <i type="int" name="IALGO">    38</i>
  <i type="logical" name="ADDGRID"> T  </i>
  <i type="int" name="NELMIN">     5</i>
  <i type="int" name="IBRION">    -1</i>
  <i name="EDIFF">      0.00000001</i>
  <i name="ENCUT">    525.10770000</i>
  <i type="logical" name="LREAL"> F  </i>
  <i type="int" name="ISMEAR">     0</i>
  <i name="SIGMA">      0.01000000</i>
  <i type="logical" name="LWAVE"> F  </i>
  <i type="logical" name="LCHARG"> F  </i>
  <i type="string" name="GGA"> PS</i>
 </incar>
 <kpoints>
  <generation param="Gamma">
   <v type="int" name="divisions">       2        2        2 </v>
   <v name="usershift">      0.00000000       0.00000000       0.00000000 </v>
   <v name="genvec1">      0.50000000       0.00000000       0.00000000 </v>
   <v name="genvec2">      0.00000000       0.50000000       0.00000000 </v>
   <v name="genvec3">      0.00000000       0.00000000       0.50000000 </v>
   <v name="shift">      0.00000000       0.00000000       0.00000000 </v>
  </generation>
  <varray name="kpointlist" >
   <v>       0.00000000       0.00000000       0.00000000 </v>
   <v>       0.50000000       0.00000000       0.00000000 </v>
   <v>       0.00000000       0.50000000       0.00000000 </v>
   <v>       0.50000000       0.50000000       0.00000000 </v>
   <v>       0.00000000       0.50000000       0.50000000 </v>
   <v>       0.50000000       0.50000000       0.50000000 </v>
  </varray>
  <varray name="weights" >
   <v>       0.12500000 </v>
   <v>       0.12500000 </v>
   <v>       0.25000000 </v>
   <v>       0.25000000 </v>
   <v>       0.12500000 </v>
   <v>       0.12500000 </v>
  </varray>
 </kpoints>
 <parameters>
  <separator name="general" >
   <i type="string" name="SYSTEM">unknown system</i>
   <i type="logical" name="LCOMPAT"> F  </i>
  </separator>
  <separator name="electronic" >
   <i type="string" name="PREC">accura</i>
   <i name="ENMAX">    525.10770000</i>
   <i name="ENAUG">    758.78000000</i>
   <i name="EDIFF">      0.00000001</i>
   <i type="int" name="IALGO">    38</i>
   <i type="int" name="IWAVPR">    10</i>
   <i type="int" name="NBANDS">   268</i>
   <i name="NELECT">    448.00000000</i>
   <i type="int" name="TURBO">     0</i>
   <i type="int" name="IRESTART">     0</i>
   <i type="int" name="NREBOOT">     0</i>
   <i type="int" name="NMIN">     0</i>
   <i name="EREF">      0.00000000</i>
   <separator name="electronic smearing" >
    <i type="int" name="ISMEAR">     0</i>
    <i name="SIGMA">      0.01000000</i>
    <i name="KSPACING">      0.50000000</i>
    <i type="logical" name="KGAMMA"> T  </i>
   </separator>
   <separator name="electronic projectors" >
    <i type="logical" name="LREAL"> F  </i>
    <v name="ROPT">      0.00000000      0.00000000</v>
    <i type="int" name="LMAXPAW">  -100</i>
    <i type="int" name="LMAXMIX">     2</i>
    <i type="logical" name="NLSPLINE"> F  </i>
   </separator>
   <separator name="electronic startup" >
    <i type="int" name="ISTART">     0</i>
    <i type="int" name="ICHARG">     2</i>
    <i type="int" name="INIWAV">     1</i>
   </separator>
   <separator name="electronic spin" >
    <i type="int" name="ISPIN">     1</i>
    <i type="logical" name="LNONCOLLINEAR"> F  </i>
    <v name="MAGMOM">      1.00000000      1.00000000      1.00000000      1.00000000      1.00000000      1.00000000      1.00000000      1.00000000      1.00000000      1.00000000      1.00000000      1.00000000      1.00000000      1.00000000      1.00000000      1.00000000      1.00000000      1.00000000      1.00000000      1.00000000
      1.00000000      1.00000000      1.00000000      1.00000000      1.00000000      1.00000000      1.00000000      1.00000000      1.00000000      1.00000000      1.00000000      1.00000000      1.00000000      1.00000000      1.00000000      1.00000000      1.00000000      1.00000000      1.00000000      1.00000000
      1.00000000      1.00000000      1.00000000      1.00000000      1.00000000      1.00000000      1.00000000      1.00000000      1.00000000      1.00000000      1.00000000      1.00000000      1.00000000      1.00000000      1.00000000      1.00000000      1.00000000      1.00000000      1.00000000      1.00000000
      1.00000000      1.00000000      1.00000000      1.00000000</v>
    <i name="NUPDOWN">     -1.00000000</i>
    <i type="logical" name="LSORBIT"> F  </i>
    <v name="SAXIS">      0.00000000      0.00000000      1.00000000</v>
    <i type="logical" name="LSPIRAL"> F  </i>
    <v name="QSPIRAL">      0.00000000      0.00000000      0.00000000</v>
    <i type="logical" name="LZEROZ"> F  </i>
   </separator>
   <separator name="electronic exchange-correlation" >
    <i type="logical" name="LASPH"> F  </i>
    <i type="logical" name="LMETAGGA"> F  </i>
   </separator>
   <separator name="electronic convergence" >
    <i type="int" name="NELM">    60</i>
    <i type="int" name="NELMDL">    -5</i>
    <i type="int" name="NELMIN">     5</i>
    <i name="ENINI">    525.10770000</i>
    <separator name="electronic convergence detail" >
     <i type="logical" name="LDIAG"> T  </i>
     <i type="logical" name="LSUBROT"> F  </i>
     <i name="WEIMIN">      0.00000000</i>
     <i name="EBREAK">      0.00000000</i>
     <i name="DEPER">      0.30000000</i>
     <i type="int" name="NRMM">     4</i>
     <i name="TIME">      0.40000000</i>
    </separator>
   </separator>
   <separator name="electronic mixer" >
    <i name="AMIX">      0.40000000</i>
    <i name="BMIX">      1.00000000</i>
    <i name="AMIN">      0.10000000</i>
    <i name="AMIX_MAG">      1.60000000</i>
    <i name="BMIX_MAG">      1.00000000</i>
    <separator name="electronic mixer details" >
     <i type="int" name="IMIX">     4</i>
     <i type="int" name="MAXMIX">   -45</i>
     <i name="WC">    100.00000000</i>
     <i type="int" name="INIMIX">     1</i>
     <i type="int" name="MIXPRE">     1</i>
     <i type="int" name="MREMOVE">     5</i>
    </separator>
   </separator>
   <separator name="electronic dipolcorrection" >
    <i type="logical" name="LDIPOL"> F  </i>
    <i type="logical" name="LMONO"> F  </i>
    <i type="int" name="IDIPOL">     0</i>
    <i name="EPSILON">      1.00000000</i>
    <v name="DIPOL">   -100.00000000   -100.00000000   -100.00000000</v>
    <i name="EFIELD">      0.00000000</i>
   </separator>
  </separator>
  <separator name="grids" >
   <i type="int" name="NGX">    80</i>
   <i type="int" name="NGY">    80</i>
   <i type="int" name="NGZ">    80</i>
   <i type="int" name="NGXF">   160</i>
   <i type="int" name="NGYF">   160</i>
   <i type="int" name="NGZF">   160</i>
   <i type="logical" name="ADDGRID"> T  </i>
  </separator>
  <separator name="ionic" >
   <i type="int" name="NSW">     0</i>
   <i type="int" name="IBRION">    -1</i>
   <i type="int" name="ISIF">     2</i>
   <i name="PSTRESS">      0.00000000</i>
   <i name="EDIFFG">      0.00000010</i>
   <i type="int" name="NFREE">     0</i>
   <i name="POTIM">      0.50000000</i>
   <i name="SMASS">     -3.00000000</i>
   <i name="SCALEE">      1.00000000</i>
  </separator>
  <separator name="ionic md" >
   <i name="TEBEG">      0.00010000</i>
   <i name="TEEND">      0.00010000</i>
   <i type="int" name="NBLOCK">     1</i>
   <i type="int" name="KBLOCK">     1</i>
   <i type="int" name="NPACO">   256</i>
   <i name="APACO">     16.00000000</i>
  </separator>
  <separator name="symmetry" >
   <i type="int" name="ISYM">     2</i>
   <i name="SYMPREC">      0.00001000</i>
  </separator>
  <separator name="dos" >
   <i type="logical" name="LORBIT"> F  </i>
   <v name="RWIGS">     -1.00000000     -1.00000000</v>
   <i type="int" name="NEDOS">   301</i>
   <i name="EMIN">     10.00000000</i>
   <i name="EMAX">    -10.00000000</i>
   <i name="EFERMI">      0.00000000</i>
  </separator>
  <separator name="writing" >
   <i type="int" name="NWRITE">     2</i>
   <i type="logical" name="LWAVE"> F  </i>
   <i type="logical" name="LCHARG"> F  </i>
   <i type="logical" name="LPARD"> F  </i>
   <i type="logical" name="LVTOT"> F  </i>
   <i type="logical" name="LVHAR"> F  </i>
   <i type="logical" name="LELF"> F  </i>
   <i type="logical" name="LOPTICS"> F  </i>
   <v name="STM">      0.00000000      0.00000000      0.00000000      0.00000000      0.00000000      0.00000000      0.00000000</v>
  </separator>
  <separator name="performance" >
   <i type="int" name="NPAR">     4</i>
   <i type="int" name="NSIM">     4</i>
   <i type="int" name="NBLK">    -1</i>
   <i type="logical" name="LPLANE"> T  </i>
   <i type="logical" name="LSCALAPACK"> T  </i>
   <i type="logical" name="LSCAAWARE"> F  </i>
   <i type="logical" name="LSCALU"> F  </i>
   <i type="logical" name="LASYNC"> F  </i>
   <i type="logical" name="LORBITALREAL"> F  </i>
  </separator>
  <separator name="miscellaneous" >
   <i type="int" name="IDIOT">     3</i>
   <i type="logical" name="LMUSIC"> F  </i>
   <v name="POMASS">     24.30500000     32.06600000</v>
   <v name="DARWINR">      0.00000000      0.00000000</v>
   <v name="DARWINV">      1.00000000      1.00000000</v>
   <i type="logical" name="LCORR"> T  </i>
  </separator>
  <i type="logical" name="GGA_COMPAT"> T  </i>
  <i type="logical" name="LBERRY"> F  </i>
  <i type="int" name="ICORELEVEL">     0</i>
  <i type="logical" name="LDAU"> F  </i>
  <i type="int" name="I_CONSTRAINED_M">     0</i>
  <separator name="electronic exchange-correlation" >
   <i type="string" name="GGA">PS</i>
   <i type="int" name="VOSKOWN">     0</i>
   <i type="logical" name="LHFCALC"> F  </i>
   <i type="string" name="PRECFOCK"></i>
   <i type="logical" name="LSYMGRAD"> F  </i>
   <i type="logical" name="LHFONE"> F  </i>
   <i type="logical" name="LRHFCALC"> F  </i>
   <i type="logical" name="LTHOMAS"> F  </i>
   <i type="logical" name="LMODELHF"> F  </i>
   <i name="ENCUT4O">     -1.00000000</i>
   <i type="int" name="EXXOEP">     0</i>
   <i type="int" name="FOURORBIT">     0</i>
   <i name="AEXX">      0.00000000</i>
   <i name="HFALPHA">      0.00000000</i>
   <i name="MCALPHA">      0.00000000</i>
   <i name="ALDAX">      1.00000000</i>
   <i name="AGGAX">      1.00000000</i>
   <i name="ALDAC">      1.00000000</i>
   <i name="AGGAC">      1.00000000</i>
   <i type="int" name="NKREDX">     1</i>
   <i type="int" name="NKREDY">     1</i>
   <i type="int" name="NKREDZ">     1</i>
   <i type="logical" name="SHIFTRED"> F  </i>
   <i type="logical" name="ODDONLY"> F  </i>
   <i type="logical" name="EVENONLY"> F  </i>
   <i type="int" name="LMAXFOCK">     0</i>
   <i type="int" name="NMAXFOCKAE">     0</i>
   <i type="logical" name="LFOCKAEDFT"> F  </i>
   <i name="HFSCREEN">      0.00000000</i>
   <i name="HFSCREENC">      0.00000000</i>
   <i type="int" name="NBANDSGWLOW">     0</i>
  </separator>
  <separator name="vdW DFT" >
   <i type="logical" name="LUSE_VDW"> F  </i>
   <i name="Zab_VDW">     -0.84910000</i>
   <i name="PARAM1">      0.12340000</i>
   <i name="PARAM2">      1.00000000</i>
   <i name="PARAM3">      0.00000000</i>
  </separator>
  <separator name="model GW" >
   <i type="int" name="MODEL_GW">     0</i>
   <i name="MODEL_EPS0">     10.43026176</i>
   <i name="MODEL_ALPHA">      1.00000000</i>
  </separator>
  <separator name="linear response parameters" >
   <i type="logical" name="LEPSILON"> F  </i>
   <i type="logical" name="LRPA"> F  </i>
   <i type="logical" name="LNABLA"> F  </i>
   <i type="logical" name="LVEL"> F  </i>
   <i type="int" name="KINTER">     0</i>
   <i name="CSHIFT">      0.10000000</i>
   <i name="OMEGAMAX">     -1.00000000</i>
   <i name="DEG_THRESHOLD">      0.00200000</i>
  </separator>
  <separator name="orbital magnetization" >
   <i type="logical" name="NUCIND"> F  </i>
   <v name="MAGPOS">      0.00000000      0.00000000      0.00000000</v>
   <i type="logical" name="LNICSALL"> T  </i>
   <i type="logical" name="ORBITALMAG"> F  </i>
   <i type="logical" name="LMAGBLOCH"> F  </i>
   <i type="logical" name="LCHIMAG"> F  </i>
   <i type="logical" name="LGAUGE"> T  </i>
   <i type="int" name="MAGATOM">     0</i>
   <v name="MAGDIPOL">      0.00000000      0.00000000      0.00000000</v>
   <v name="AVECCONST">      0.00000000      0.00000000      0.00000000</v>
  </separator>
  <separator name="response functions" >
   <i type="logical" name="LADDER"> F  </i>
   <i type="logical" name="LFXC"> F  </i>
   <i type="logical" name="LHARTREE"> T  </i>
   <i type="int" name="IBSE">     0</i>
   <i type="logical" name="LTCTE"> F  </i>
   <i type="logical" name="LTETE"> F  </i>
   <i type="logical" name="LTRIPLET"> F  </i>
   <i type="logical" name="LFXCEPS"> F  </i>
   <i type="logical" name="LFXHEG"> F  </i>
   <i type="logical" name="L2ORDER"> F  </i>
   <i type="logical" name="LUSEW"> F  </i>
   <i name="ENCUTGW">     -2.00000000</i>
   <i name="ENCUTGWSOFT">     -2.00000000</i>
   <i name="ENCUTLF">     -1.00000000</i>
   <i type="int" name="LMAXMP2">    -1</i>
   <i name="SCISSOR">      0.00000000</i>
   <i type="int" name="NOMEGA">     0</i>
   <i type="int" name="NOMEGAR">     0</i>
   <i type="int" name="NBANDSGW">    -1</i>
   <i type="int" name="NBANDSO">    -1</i>
   <i type="int" name="NBANDSV">    -1</i>
   <i type="int" name="NELM">     1</i>
   <i type="int" name="DIM">     3</i>
   <i type="int" name="ANTIRES">     0</i>
   <i name="OMEGAMAX">    -30.00000000</i>
   <i name="OMEGAMIN">    -30.00000000</i>
   <i name="OMEGATL">   -200.00000000</i>
   <i type="int" name="OMEGAGRID">     0</i>
   <i name="CSHIFT">     -0.10000000</i>
   <i type="logical" name="SELFENERGY"> F  </i>
   <i type="logical" name="LSPECTRAL"> F  </i>
   <i type="logical" name="ODDONLYGW"> F  </i>
   <i type="logical" name="EVENONLYGW"> F  </i>
   <i type="int" name="NKREDLFX">     1</i>
   <i type="int" name="NKREDLFY">     1</i>
   <i type="int" name="NKREDLFZ">     1</i>
   <i type="int" name="MAXMEM">  1800</i>
   <i type="int" name="TELESCOPE">     0</i>
   <i type="int" name="TAUPAR">     1</i>
  </separator>
  <separator name="External order field" >
   <i name="OFIELD_KAPPA">      0.00000000</i>
   <v name="OFIELD_K">      0.00000000      0.00000000      0.00000000</v>
   <i name="OFIELD_Q6_NEAR">      0.00000000</i>
   <i name="OFIELD_Q6_FAR">      0.00000000</i>
   <i name="OFIELD_A">      0.00000000</i>
  </separator>
 </parameters>
 <atominfo>
  <atoms>      64 </atoms>
  <types>       2 </types>
  <array name="atoms" >
   <dimension dim="1">ion</dimension>
   <field type="string">element</field>
   <field type="int">atomtype</field>
   <set>
    <rc><c>Mg</c><c>   1</c></rc>
    <rc><c>Mg</c><c>   1</c></rc>
    <rc><c>Mg</c><c>   1</c></rc>
    <rc><c>Mg</c><c>   1</c></rc>
    <rc><c>Mg</c><c>   1</c></rc>
    <rc><c>Mg</c><c>   1</c></rc>
    <rc><c>Mg</c><c>   1</c></rc>
    <rc><c>Mg</c><c>   1</c></rc>
    <rc><c>Mg</c><c>   1</c></rc>
    <rc><c>Mg</c><c>   1</c></rc>
    <rc><c>Mg</c><c>   1</c></rc>
    <rc><c>Mg</c><c>   1</c></rc>
    <rc><c>Mg</c><c>   1</c></rc>
    <rc><c>Mg</c><c>   1</c></rc>
    <rc><c>Mg</c><c>   1</c></rc>
    <rc><c>Mg</c><c>   1</c></rc>
    <rc><c>Mg</c><c>   1</c></rc>
    <rc><c>Mg</c><c>   1</c></rc>
    <rc><c>Mg</c><c>   1</c></rc>
    <rc><c>Mg</c><c>   1</c></rc>
    <rc><c>Mg</c><c>   1</c></rc>
    <rc><c>Mg</c><c>   1</c></rc>
    <rc><c>Mg</c><c>   1</c></rc>
    <rc><c>Mg</c><c>   1</c></rc>
    <rc><c>Mg</c><c>   1</c></rc>
    <rc><c>Mg</c><c>   1</c></rc>
    <rc><c>Mg</c><c>   1</c></rc>
    <rc><c>Mg</c><c>   1</c></rc>
    <rc><c>Mg</c><c>   1</c></rc>
    <rc><c>Mg</c><c>   1</c></rc>
    <rc><c>Mg</c><c>   1</c></rc>
    <rc><c>Mg</c><c>   1</c></rc>
    <rc><c>S </c><c>   2</c></rc>
    <rc><c>S </c><c>   2</c></rc>
    <rc><c>S </c><c>   2</c></rc>
    <rc><c>S </c><c>   2</c></rc>
    <rc><c>S </c><c>   2</c></rc>
    <rc><c>S </c><c>   2</c></rc>
    <rc><c>S </c><c>   2</c></rc>
    <rc><c>S </c><c>   2</c></rc>
    <rc><c>S </c><c>   2</c></rc>
    <rc><c>S </c><c>   2</c></rc>
    <rc><c>S </c><c>   2</c></rc>
    <rc><c>S </c><c>   2</c></rc>
    <rc><c>S </c><c>   2</c></rc>
    <rc><c>S </c><c>   2</c></rc>
    <rc><c>S </c><c>   2</c></rc>
    <rc><c>S </c><c>   2</c></rc>
    <rc><c>S </c><c>   2</c></rc>
    <rc><c>S </c><c>   2</c></rc>
    <rc><c>S </c><c>   2</c></rc>
    <rc><c>S </c><c>   2</c></rc>
    <rc><c>S </c><c>   2</c></rc>
    <rc><c>S </c><c>   2</c></rc>
    <rc><c>S </c><c>   2</c></rc>
    <rc><c>S </c><c>   2</c></rc>
    <rc><c>S </c><c>   2</c></rc>
    <rc><c>S </c><c>   2</c></rc>
    <rc><c>S </c><c>   2</c></rc>
    <rc><c>S </c><c>   2</c></rc>
    <rc><c>S </c><c>   2</c></rc>
    <rc><c>S </c><c>   2</c></rc>
    <rc><c>S </c><c>   2</c></rc>
    <rc><c>S </c><c>   2</c></rc>
   </set>
  </array>
  <array name="atomtypes" >
   <dimension dim="1">type</dimension>
   <field type="int">atomspertype</field>
   <field type="string">element</field>
   <field>mass</field>
   <field>valence</field>
   <field type="string">pseudopotential</field>
   <set>
    <rc><c>  32</c><c>Mg</c><c>     24.30500000</c><c>      8.00000000</c><c>  PAW_PBE Mg_pv 13Apr2007               </c></rc>
    <rc><c>  32</c><c>S </c><c>     32.06600000</c><c>      6.00000000</c><c>  PAW_PBE S 06Sep2000                   </c></rc>
   </set>
  </array>
 </atominfo>
 <structure name="initialpos" >
  <crystal>
   <varray name="basis" >
    <v>      10.36194566       0.00000000       0.00000000 </v>
    <v>       0.00000000      10.36194566       0.00000000 </v>
    <v>       0.00000000       0.00000000      10.36194566 </v>
   </varray>
   <i name="volume">   1112.56125439 </i>
   <varray name="rec_basis" >
    <v>       0.09650697       0.00000000       0.00000000 </v>
    <v>       0.00000000       0.09650697       0.00000000 </v>
    <v>       0.00000000       0.00000000       0.09650697 </v>
   </varray>
  </crystal>
  <varray name="positions" >
   <v>       0.00000000       0.00000000       0.00000000 </v>
   <v>       0.50000000       0.00000000       0.00000000 </v>
   <v>       0.00000000       0.50000000       0.00000000 </v>
   <v>       0.50000000       0.50000000       0.00000000 </v>
   <v>       0.00000000       0.00000000       0.50000000 </v>
   <v>       0.50000000       0.00000000       0.50000000 </v>
   <v>       0.00000000       0.50000000       0.50000000 </v>
   <v>       0.50000000       0.50000000       0.50000000 </v>
   <v>       0.00000000       0.25000000       0.25000000 </v>
   <v>       0.50000000       0.25000000       0.25000000 </v>
   <v>       0.00000000       0.75000000       0.25000000 </v>
   <v>       0.50000000       0.75000000       0.25000000 </v>
   <v>       0.00000000       0.25000000       0.75000000 </v>
   <v>       0.50000000       0.25000000       0.75000000 </v>
   <v>       0.00000000       0.75000000       0.75000000 </v>
   <v>       0.50000000       0.75000000       0.75000000 </v>
   <v>       0.25000000       0.00000000       0.25000000 </v>
   <v>       0.75000000       0.00000000       0.25000000 </v>
   <v>       0.25000000       0.50000000       0.25000000 </v>
   <v>       0.75000000       0.50000000       0.25000000 </v>
   <v>       0.25000000       0.00000000       0.75000000 </v>
   <v>       0.75000000       0.00000000       0.75000000 </v>
   <v>       0.25000000       0.50000000       0.75000000 </v>
   <v>       0.75000000       0.50000000       0.75000000 </v>
   <v>       0.25000000       0.25000000       0.00000000 </v>
   <v>       0.75000000       0.25000000       0.00000000 </v>
   <v>       0.25000000       0.75000000       0.00000000 </v>
   <v>       0.75000000       0.75000000       0.00000000 </v>
   <v>       0.25000000       0.25000000       0.50000000 </v>
   <v>       0.75000000       0.25000000       0.50000000 </v>
   <v>       0.25000000       0.75000000       0.50000000 </v>
   <v>       0.75000000       0.75000000       0.50000000 </v>
   <v>       0.25096507       0.00000000       0.00000000 </v>
   <v>       0.75000000       0.00000000       0.00000000 </v>
   <v>       0.25000000       0.50000000       0.00000000 </v>
   <v>       0.75000000       0.50000000       0.00000000 </v>
   <v>       0.25000000       0.00000000       0.50000000 </v>
   <v>       0.75000000       0.00000000       0.50000000 </v>
   <v>       0.25000000       0.50000000       0.50000000 </v>
   <v>       0.75000000       0.50000000       0.50000000 </v>
   <v>       0.25000000       0.25000000       0.25000000 </v>
   <v>       0.75000000       0.25000000       0.25000000 </v>
   <v>       0.25000000       0.75000000       0.25000000 </v>
   <v>       0.75000000       0.75000000       0.25000000 </v>
   <v>       0.25000000       0.25000000       0.75000000 </v>
   <v>       0.75000000       0.25000000       0.75000000 </v>
   <v>       0.25000000       0.75000000       0.75000000 </v>
   <v>       0.75000000       0.75000000       0.75000000 </v>
   <v>       0.00000000       0.00000000       0.25000000 </v>
   <v>       0.50000000       0.00000000       0.25000000 </v>
   <v>       0.00000000       0.50000000       0.25000000 </v>
   <v>       0.50000000       0.50000000       0.25000000 </v>
   <v>       0.00000000       0.00000000       0.75000000 </v>
   <v>       0.50000000       0.00000000       0.75000000 </v>
   <v>       0.00000000       0.50000000       0.75000000 </v>
   <v>       0.50000000       0.50000000       0.75000000 </v>
   <v>       0.00000000       0.25000000       0.00000000 </v>
   <v>       0.50000000       0.25000000       0.00000000 </v>
   <v>       0.00000000       0.75000000       0.00000000 </v>
   <v>       0.50000000       0.75000000       0.00000000 </v>
   <v>       0.00000000       0.25000000       0.50000000 </v>
   <v>       0.50000000       0.25000000       0.50000000 </v>
   <v>       0.00000000       0.75000000       0.50000000 </v>
   <v>       0.50000000       0.75000000       0.50000000 </v>
  </varray>
 </structure>
 <calculation>
  <scstep>
   <time name="dav">   24.50   24.51</time>
   <time name="total">   24.89   24.90</time>
   <energy>
    <i name="alphaZ">   1221.40497399 </i>
    <i name="ewald"> -25040.94142270 </i>
    <i name="hartreedc">  -9314.42074412 </i>
    <i name="XCdc">   1275.11158671 </i>
    <i name="pawpsdc">  27701.73694044 </i>
    <i name="pawaedc"> -31358.41014717 </i>
    <i name="eentropy">     -0.00015467 </i>
    <i name="bandstr">  -2758.45706361 </i>
    <i name="atom">  42573.64344421 </i>
    <i name="e_fr_energy">   4299.66741308 </i>
    <i name="e_wo_entrp">   4299.66756774 </i>
    <i name="e_0_energy">   4299.66749041 </i>
   </energy>
  </scstep>
  <scstep>
   <time name="dav">   24.11   24.10</time>
   <time name="total">   24.11   24.11</time>
   <energy>
    <i name="e_fr_energy">    100.73341589 </i>
    <i name="e_wo_entrp">    100.73341589 </i>
    <i name="e_0_energy">    100.73341589 </i>
   </energy>
  </scstep>
  <scstep>
   <time name="dav">   24.47   24.48</time>
   <time name="total">   24.48   24.49</time>
   <energy>
    <i name="e_fr_energy">   -282.25237935 </i>
    <i name="e_wo_entrp">   -282.25237935 </i>
    <i name="e_0_energy">   -282.25237935 </i>
   </energy>
  </scstep>
  <scstep>
   <time name="dav">   23.31   23.32</time>
   <time name="total">   23.31   23.32</time>
   <energy>
    <i name="e_fr_energy">   -300.83060612 </i>
    <i name="e_wo_entrp">   -300.83060612 </i>
    <i name="e_0_energy">   -300.83060612 </i>
   </energy>
  </scstep>
  <scstep>
   <time name="dav">   25.29   25.29</time>
   <time name="total">   26.31   26.31</time>
   <energy>
    <i name="e_fr_energy">   -301.66857843 </i>
    <i name="e_wo_entrp">   -301.66857843 </i>
    <i name="e_0_energy">   -301.66857843 </i>
   </energy>
  </scstep>
  <scstep>
   <time name="dav">   22.87   22.87</time>
   <time name="total">   24.29   24.29</time>
   <energy>
    <i name="e_fr_energy">   -291.17970019 </i>
    <i name="e_wo_entrp">   -291.17970019 </i>
    <i name="e_0_energy">   -291.17970019 </i>
   </energy>
  </scstep>
  <scstep>
   <time name="dav">   23.80   23.79</time>
   <time name="total">   25.21   25.21</time>
   <energy>
    <i name="e_fr_energy">   -289.91241837 </i>
    <i name="e_wo_entrp">   -289.91241837 </i>
    <i name="e_0_energy">   -289.91241837 </i>
   </energy>
  </scstep>
  <scstep>
   <time name="dav">   22.64   22.63</time>
   <time name="total">   24.05   24.05</time>
   <energy>
    <i name="e_fr_energy">   -289.83528910 </i>
    <i name="e_wo_entrp">   -289.83528910 </i>
    <i name="e_0_energy">   -289.83528910 </i>
   </energy>
  </scstep>
  <scstep>
   <time name="dav">   23.43   23.43</time>
   <time name="total">   24.86   24.86</time>
   <energy>
    <i name="e_fr_energy">   -289.83069531 </i>
    <i name="e_wo_entrp">   -289.83069531 </i>
    <i name="e_0_energy">   -289.83069531 </i>
   </energy>
  </scstep>
  <scstep>
   <time name="dav">   23.65   23.65</time>
   <time name="total">   25.06   25.06</time>
   <energy>
    <i name="e_fr_energy">   -289.83115858 </i>
    <i name="e_wo_entrp">   -289.83115858 </i>
    <i name="e_0_energy">   -289.83115858 </i>
   </energy>
  </scstep>
  <scstep>
   <time name="dav">   22.82   22.82</time>
   <time name="total">   24.23   24.24</time>
   <energy>
    <i name="e_fr_energy">   -289.83091282 </i>
    <i name="e_wo_entrp">   -289.83091282 </i>
    <i name="e_0_energy">   -289.83091282 </i>
   </energy>
  </scstep>
  <scstep>
   <time name="dav">   23.83   23.83</time>
   <time name="total">   25.22   25.23</time>
   <energy>
    <i name="e_fr_energy">   -289.83091434 </i>
    <i name="e_wo_entrp">   -289.83091434 </i>
    <i name="e_0_energy">   -289.83091434 </i>
   </energy>
  </scstep>
  <scstep>
   <time name="dav">   23.16   23.18</time>
   <time name="total">   24.58   24.60</time>
   <energy>
    <i name="e_fr_energy">   -289.83091744 </i>
    <i name="e_wo_entrp">   -289.83091744 </i>
    <i name="e_0_energy">   -289.83091744 </i>
   </energy>
  </scstep>
  <scstep>
   <time name="dav">   23.15   23.15</time>
   <time name="total">   24.56   24.56</time>
   <energy>
    <i name="e_fr_energy">   -289.83091718 </i>
    <i name="e_wo_entrp">   -289.83091718 </i>
    <i name="e_0_energy">   -289.83091718 </i>
   </energy>
  </scstep>
  <scstep>
   <time name="dav">   20.23   20.24</time>
   <time name="total">   21.65   21.66</time>
   <energy>
    <i name="e_fr_energy">   -289.83091707 </i>
    <i name="e_wo_entrp">   -289.83091707 </i>
    <i name="e_0_energy">   -289.83091707 </i>
   </energy>
  </scstep>
  <scstep>
   <time name="dav">   18.90   18.90</time>
   <time name="total">   20.32   20.32</time>
   <energy>
    <i name="e_fr_energy">   -289.83091710 </i>
    <i name="e_wo_entrp">   -289.83091710 </i>
    <i name="e_0_energy">   -289.83091710 </i>
   </energy>
  </scstep>
  <scstep>
   <time name="dav">   15.29   15.29</time>
   <time name="total">   16.71   16.71</time>
   <energy>
    <i name="e_fr_energy">   -289.83091700 </i>
    <i name="e_wo_entrp">   -289.83091700 </i>
    <i name="e_0_energy">   -289.83091700 </i>
   </energy>
  </scstep>
  <scstep>
   <time name="dav">   15.18   15.19</time>
   <time name="total">   16.59   16.60</time>
   <energy>
    <i name="e_fr_energy">   -289.83091703 </i>
    <i name="e_wo_entrp">   -289.83091703 </i>
    <i name="e_0_energy">   -289.83091703 </i>
   </energy>
  </scstep>
  <scstep>
   <time name="dav">   15.11   15.12</time>
   <time name="total">   15.50   15.51</time>
   <energy>
    <i name="alphaZ">   1221.40497399 </i>
    <i name="ewald"> -25040.94142270 </i>
    <i name="hartreedc">  -9242.04623583 </i>
    <i name="XCdc">   1291.28063226 </i>
    <i name="pawpsdc">  37428.20714463 </i>
    <i name="pawaedc"> -41052.08497979 </i>
    <i name="eentropy">      0.00000000 </i>
    <i name="bandstr">  -7469.29447381 </i>
    <i name="atom">  42573.64344421 </i>
    <i name="e_fr_energy">   -289.83091704 </i>
    <i name="e_wo_entrp">   -289.83091704 </i>
    <i name="e_0_energy">   -289.83091704 </i>
   </energy>
  </scstep>
  <structure>
   <crystal>
    <varray name="basis" >
     <v>      10.36194566       0.00000000       0.00000000 </v>
     <v>       0.00000000      10.36194566       0.00000000 </v>
     <v>       0.00000000       0.00000000      10.36194566 </v>
    </varray>
    <i name="volume">   1112.56125439 </i>
    <varray name="rec_basis" >
     <v>       0.09650697       0.00000000       0.00000000 </v>
     <v>       0.00000000       0.09650697       0.00000000 </v>
     <v>       0.00000000       0.00000000       0.09650697 </v>
    </varray>
   </crystal>
   <varray name="positions" >
    <v>       0.00000000       0.00000000       0.00000000 </v>
    <v>       0.50000000       0.00000000       0.00000000 </v>
    <v>       0.00000000       0.50000000       0.00000000 </v>
    <v>       0.50000000       0.50000000       0.00000000 </v>
    <v>       0.00000000       0.00000000       0.50000000 </v>
    <v>       0.50000000       0.00000000       0.50000000 </v>
    <v>       0.00000000       0.50000000       0.50000000 </v>
    <v>       0.50000000       0.50000000       0.50000000 </v>
    <v>       0.00000000       0.25000000       0.25000000 </v>
    <v>       0.50000000       0.25000000       0.25000000 </v>
    <v>       0.00000000       0.75000000       0.25000000 </v>
    <v>       0.50000000       0.75000000       0.25000000 </v>
    <v>       0.00000000       0.25000000       0.75000000 </v>
    <v>       0.50000000       0.25000000       0.75000000 </v>
    <v>       0.00000000       0.75000000       0.75000000 </v>
    <v>       0.50000000       0.75000000       0.75000000 </v>
    <v>       0.25000000       0.00000000       0.25000000 </v>
    <v>       0.75000000       0.00000000       0.25000000 </v>
    <v>       0.25000000       0.50000000       0.25000000 </v>
    <v>       0.75000000       0.50000000       0.25000000 </v>
    <v>       0.25000000       0.00000000       0.75000000 </v>
    <v>       0.75000000       0.00000000       0.75000000 </v>
    <v>       0.25000000       0.50000000       0.75000000 </v>
    <v>       0.75000000       0.50000000       0.75000000 </v>
    <v>       0.25000000       0.25000000       0.00000000 </v>
    <v>       0.75000000       0.25000000       0.00000000 </v>
    <v>       0.25000000       0.75000000       0.00000000 </v>
    <v>       0.75000000       0.75000000       0.00000000 </v>
    <v>       0.25000000       0.25000000       0.50000000 </v>
    <v>       0.75000000       0.25000000       0.50000000 </v>
    <v>       0.25000000       0.75000000       0.50000000 </v>
    <v>       0.75000000       0.75000000       0.50000000 </v>
    <v>       0.25096507       0.00000000       0.00000000 </v>
    <v>       0.75000000       0.00000000       0.00000000 </v>
    <v>       0.25000000       0.50000000       0.00000000 </v>
    <v>       0.75000000       0.50000000       0.00000000 </v>
    <v>       0.25000000       0.00000000       0.50000000 </v>
    <v>       0.75000000       0.00000000       0.50000000 </v>
    <v>       0.25000000       0.50000000       0.50000000 </v>
    <v>       0.75000000       0.50000000       0.50000000 </v>
    <v>       0.25000000       0.25000000       0.25000000 </v>
    <v>       0.75000000       0.25000000       0.25000000 </v>
    <v>       0.25000000       0.75000000       0.25000000 </v>
    <v>       0.75000000       0.75000000       0.25000000 </v>
    <v>       0.25000000       0.25000000       0.75000000 </v>
    <v>       0.75000000       0.25000000       0.75000000 </v>
    <v>       0.25000000       0.75000000       0.75000000 </v>
    <v>       0.75000000       0.75000000       0.75000000 </v>
    <v>       0.00000000       0.00000000       0.25000000 </v>
    <v>       0.50000000       0.00000000       0.25000000 </v>
    <v>       0.00000000       0.50000000       0.25000000 </v>
    <v>       0.50000000       0.50000000       0.25000000 </v>
    <v>       0.00000000       0.00000000       0.75000000 </v>
    <v>       0.50000000       0.00000000       0.75000000 </v>
    <v>       0.00000000       0.50000000       0.75000000 </v>
    <v>       0.50000000       0.50000000       0.75000000 </v>
    <v>       0.00000000       0.25000000       0.00000000 </v>
    <v>       0.50000000       0.25000000       0.00000000 </v>
    <v>       0.00000000       0.75000000       0.00000000 </v>
    <v>       0.50000000       0.75000000       0.00000000 </v>
    <v>       0.00000000       0.25000000       0.50000000 </v>
    <v>       0.50000000       0.25000000       0.50000000 </v>
    <v>       0.00000000       0.75000000       0.50000000 </v>
    <v>       0.50000000       0.75000000       0.50000000 </v>
   </varray>
  </structure>
  <varray name="forces" >
   <v>       0.01327115       0.00000000       0.00000000 </v>
   <v>       0.01444325       0.00000000       0.00000000 </v>
   <v>       0.00046438       0.00000000       0.00000000 </v>
   <v>       0.00046826       0.00000000       0.00000000 </v>
   <v>       0.00046438       0.00000000       0.00000000 </v>
   <v>       0.00046826       0.00000000       0.00000000 </v>
   <v>      -0.00000617       0.00000000       0.00000000 </v>
   <v>      -0.00000595       0.00000000       0.00000000 </v>
   <v>      -0.00001818       0.00095973       0.00095973 </v>
   <v>      -0.00001450      -0.00095880      -0.00095880 </v>
   <v>      -0.00001818      -0.00095973       0.00095973 </v>
   <v>      -0.00001450       0.00095880      -0.00095880 </v>
   <v>      -0.00001818       0.00095973      -0.00095973 </v>
   <v>      -0.00001450      -0.00095880       0.00095880 </v>
   <v>      -0.00001818      -0.00095973      -0.00095973 </v>
   <v>      -0.00001450       0.00095880       0.00095880 </v>
   <v>       0.00299530       0.00000000      -0.00003500 </v>
   <v>      -0.00265442       0.00000000       0.00000121 </v>
   <v>       0.00036419       0.00000000      -0.00000038 </v>
   <v>      -0.00041780       0.00000000      -0.00000130 </v>
   <v>       0.00299530       0.00000000       0.00003500 </v>
   <v>      -0.00265442       0.00000000      -0.00000121 </v>
   <v>       0.00036419       0.00000000       0.00000038 </v>
   <v>      -0.00041780       0.00000000       0.00000130 </v>
   <v>       0.00299530      -0.00003500       0.00000000 </v>
   <v>      -0.00265442       0.00000121       0.00000000 </v>
   <v>       0.00299530       0.00003500       0.00000000 </v>
   <v>      -0.00265442      -0.00000121       0.00000000 </v>
   <v>       0.00036419      -0.00000038       0.00000000 </v>
   <v>      -0.00041780      -0.00000130       0.00000000 </v>
   <v>       0.00036419       0.00000038       0.00000000 </v>
   <v>      -0.00041780       0.00000130       0.00000000 </v>
   <v>      -0.06481797       0.00000000       0.00000000 </v>
   <v>       0.00223602       0.00000000       0.00000000 </v>
   <v>      -0.00124905       0.00000000       0.00000000 </v>
   <v>       0.00290208       0.00000000       0.00000000 </v>
   <v>      -0.00124905       0.00000000       0.00000000 </v>
   <v>       0.00290208       0.00000000       0.00000000 </v>
   <v>      -0.00049597       0.00000000       0.00000000 </v>
   <v>       0.00048736       0.00000000       0.00000000 </v>
   <v>      -0.00144880      -0.00000281      -0.00000281 </v>
   <v>       0.00109993      -0.00000013      -0.00000013 </v>
   <v>      -0.00144880       0.00000281      -0.00000281 </v>
   <v>       0.00109993       0.00000013      -0.00000013 </v>
   <v>      -0.00144880      -0.00000281       0.00000281 </v>
   <v>       0.00109993      -0.00000013       0.00000013 </v>
   <v>      -0.00144880       0.00000281       0.00000281 </v>
   <v>       0.00109993       0.00000013       0.00000013 </v>
   <v>       0.00380602       0.00000000      -0.00578561 </v>
   <v>       0.00382067       0.00000000       0.00582672 </v>
   <v>      -0.00005071       0.00000000      -0.00054887 </v>
   <v>      -0.00005248       0.00000000       0.00055054 </v>
   <v>       0.00380602       0.00000000       0.00578561 </v>
   <v>       0.00382067       0.00000000      -0.00582672 </v>
   <v>      -0.00005071       0.00000000       0.00054887 </v>
   <v>      -0.00005248       0.00000000      -0.00055054 </v>
   <v>       0.00380602      -0.00578561       0.00000000 </v>
   <v>       0.00382067       0.00582672       0.00000000 </v>
   <v>       0.00380602       0.00578561       0.00000000 </v>
   <v>       0.00382067      -0.00582672       0.00000000 </v>
   <v>      -0.00005071      -0.00054887       0.00000000 </v>
   <v>      -0.00005248       0.00055054       0.00000000 </v>
   <v>      -0.00005071       0.00054887       0.00000000 </v>
   <v>      -0.00005248      -0.00055054       0.00000000 </v>
  </varray>
  <varray name="stress" >
   <v>      -0.04805631       0.00000000       0.00000000 </v>
   <v>       0.00000000      -0.05183862       0.00000000 </v>
   <v>       0.00000000       0.00000000      -0.05183862 </v>
  </varray>
  <energy>
   <i name="e_fr_energy">   -289.83091704 </i>
   <i name="e_wo_entrp">   -289.83091704 </i>
   <i name="e_0_energy">      0.00000000 </i>
  </energy>
  <time name="totalsc">  470.77  470.88</time>
  <eigenvalues>
   <array>
    <dimension dim="1">band</dimension>
    <dimension dim="2">kpoint</dimension>
    <dimension dim="3">spin</dimension>
    <field>eigene</field>
    <field>occ</field>
    <set>
     <set comment="spin 1">
      <set comment="kpoint 1">
       <r>  -37.6496    1.0000 </r>
       <r>  -37.6491    1.0000 </r>
       <r>  -37.6491    1.0000 </r>
       <r>  -37.6434    1.0000 </r>
       <r>  -37.6434    1.0000 </r>
       <r>  -37.6434    1.0000 </r>
       <r>  -37.6431    1.0000 </r>
       <r>  -37.6422    1.0000 </r>
       <r>  -37.6422    1.0000 </r>
       <r>  -37.6422    1.0000 </r>
       <r>  -37.6417    1.0000 </r>
       <r>  -37.6414    1.0000 </r>
       <r>  -37.6414    1.0000 </r>
       <r>  -37.6414    1.0000 </r>
       <r>  -37.6414    1.0000 </r>
       <r>  -37.6414    1.0000 </r>
       <r>  -37.6414    1.0000 </r>
       <r>  -37.6411    1.0000 </r>
       <r>  -37.6411    1.0000 </r>
       <r>  -37.6408    1.0000 </r>
       <r>  -37.6408    1.0000 </r>
       <r>  -37.6407    1.0000 </r>
       <r>  -37.6407    1.0000 </r>
       <r>  -37.6405    1.0000 </r>
       <r>  -37.6405    1.0000 </r>
       <r>  -37.6404    1.0000 </r>
       <r>  -37.6404    1.0000 </r>
       <r>  -37.6403    1.0000 </r>
       <r>  -37.6403    1.0000 </r>
       <r>  -37.6403    1.0000 </r>
       <r>  -37.6401    1.0000 </r>
       <r>  -37.6399    1.0000 </r>
       <r>  -37.6395    1.0000 </r>
       <r>  -37.6395    1.0000 </r>
       <r>  -37.6394    1.0000 </r>
       <r>  -37.6392    1.0000 </r>
       <r>  -37.6392    1.0000 </r>
       <r>  -37.6392    1.0000 </r>
       <r>  -37.6390    1.0000 </r>
       <r>  -37.6390    1.0000 </r>
       <r>  -37.6390    1.0000 </r>
       <r>  -37.6389    1.0000 </r>
       <r>  -37.6388    1.0000 </r>
       <r>  -37.6388    1.0000 </r>
       <r>  -37.6388    1.0000 </r>
       <r>  -37.6388    1.0000 </r>
       <r>  -37.6388    1.0000 </r>
       <r>  -37.6388    1.0000 </r>
       <r>  -37.6388    1.0000 </r>
       <r>  -37.6388    1.0000 </r>
       <r>  -37.6387    1.0000 </r>
       <r>  -37.6387    1.0000 </r>
       <r>  -37.6386    1.0000 </r>
       <r>  -37.6386    1.0000 </r>
       <r>  -37.6386    1.0000 </r>
       <r>  -37.6386    1.0000 </r>
       <r>  -37.6385    1.0000 </r>
       <r>  -37.6385    1.0000 </r>
       <r>  -37.6379    1.0000 </r>
       <r>  -37.6379    1.0000 </r>
       <r>  -37.6379    1.0000 </r>
       <r>  -37.6379    1.0000 </r>
       <r>  -37.6376    1.0000 </r>
       <r>  -37.6375    1.0000 </r>
       <r>  -37.6374    1.0000 </r>
       <r>  -37.6374    1.0000 </r>
       <r>  -37.6373    1.0000 </r>
       <r>  -37.6371    1.0000 </r>
       <r>  -37.6371    1.0000 </r>
       <r>  -37.6371    1.0000 </r>
       <r>  -37.6371    1.0000 </r>
       <r>  -37.6368    1.0000 </r>
       <r>  -37.6368    1.0000 </r>
       <r>  -37.6367    1.0000 </r>
       <r>  -37.6367    1.0000 </r>
       <r>  -37.6367    1.0000 </r>
       <r>  -37.6367    1.0000 </r>
       <r>  -37.6367    1.0000 </r>
       <r>  -37.6367    1.0000 </r>
       <r>  -37.6365    1.0000 </r>
       <r>  -37.6365    1.0000 </r>
       <r>  -37.6365    1.0000 </r>
       <r>  -37.6365    1.0000 </r>
       <r>  -37.6363    1.0000 </r>
       <r>  -37.6363    1.0000 </r>
       <r>  -37.6363    1.0000 </r>
       <r>  -37.6363    1.0000 </r>
       <r>  -37.6361    1.0000 </r>
       <r>  -37.6361    1.0000 </r>
       <r>  -37.6360    1.0000 </r>
       <r>  -37.6355    1.0000 </r>
       <r>  -37.6352    1.0000 </r>
       <r>  -37.6352    1.0000 </r>
       <r>  -37.6286    1.0000 </r>
       <r>  -37.6286    1.0000 </r>
       <r>  -37.6281    1.0000 </r>
       <r>   -9.1732    1.0000 </r>
       <r>   -8.4084    1.0000 </r>
       <r>   -8.4077    1.0000 </r>
       <r>   -8.4077    1.0000 </r>
       <r>   -8.4077    1.0000 </r>
       <r>   -8.4077    1.0000 </r>
       <r>   -8.4070    1.0000 </r>
       <r>   -7.8876    1.0000 </r>
       <r>   -7.8867    1.0000 </r>
       <r>   -7.8867    1.0000 </r>
       <r>   -7.8856    1.0000 </r>
       <r>   -7.8856    1.0000 </r>
       <r>   -7.8856    1.0000 </r>
       <r>   -7.8856    1.0000 </r>
       <r>   -7.8856    1.0000 </r>
       <r>   -7.8856    1.0000 </r>
       <r>   -7.8846    1.0000 </r>
       <r>   -7.8846    1.0000 </r>
       <r>   -7.8837    1.0000 </r>
       <r>   -7.8025    1.0000 </r>
       <r>   -7.8025    1.0000 </r>
       <r>   -7.8024    1.0000 </r>
       <r>   -7.8024    1.0000 </r>
       <r>   -7.4243    1.0000 </r>
       <r>   -7.4243    1.0000 </r>
       <r>   -7.4242    1.0000 </r>
       <r>   -7.3740    1.0000 </r>
       <r>   -7.3733    1.0000 </r>
       <r>   -7.3733    1.0000 </r>
       <r>   -7.3733    1.0000 </r>
       <r>   -7.3732    1.0000 </r>
       <r>   -7.3724    1.0000 </r>
       <r>   -1.3772    1.0000 </r>
       <r>   -1.3772    1.0000 </r>
       <r>   -1.3772    1.0000 </r>
       <r>   -1.3772    1.0000 </r>
       <r>   -0.7318    1.0000 </r>
       <r>   -0.7318    1.0000 </r>
       <r>   -0.7318    1.0000 </r>
       <r>   -0.2109    1.0000 </r>
       <r>   -0.2094    1.0000 </r>
       <r>   -0.2094    1.0000 </r>
       <r>   -0.2091    1.0000 </r>
       <r>   -0.2091    1.0000 </r>
       <r>   -0.2091    1.0000 </r>
       <r>   -0.2091    1.0000 </r>
       <r>   -0.2091    1.0000 </r>
       <r>   -0.2091    1.0000 </r>
       <r>   -0.2089    1.0000 </r>
       <r>   -0.2089    1.0000 </r>
       <r>   -0.2073    1.0000 </r>
       <r>    0.2520    1.0000 </r>
       <r>    0.2520    1.0000 </r>
       <r>    0.2530    1.0000 </r>
       <r>    0.2530    1.0000 </r>
       <r>    0.2533    1.0000 </r>
       <r>    0.2533    1.0000 </r>
       <r>    0.2533    1.0000 </r>
       <r>    0.2533    1.0000 </r>
       <r>    0.2536    1.0000 </r>
       <r>    0.2536    1.0000 </r>
       <r>    0.2546    1.0000 </r>
       <r>    0.2546    1.0000 </r>
       <r>    0.9684    1.0000 </r>
       <r>    0.9689    1.0000 </r>
       <r>    0.9689    1.0000 </r>
       <r>    0.9689    1.0000 </r>
       <r>    0.9689    1.0000 </r>
       <r>    0.9695    1.0000 </r>
       <r>    1.1546    1.0000 </r>
       <r>    1.1562    1.0000 </r>
       <r>    1.1562    1.0000 </r>
       <r>    1.1564    1.0000 </r>
       <r>    1.1564    1.0000 </r>
       <r>    1.1577    1.0000 </r>
       <r>    1.1696    1.0000 </r>
       <r>    1.1696    1.0000 </r>
       <r>    1.1715    1.0000 </r>
       <r>    1.1716    1.0000 </r>
       <r>    1.1716    1.0000 </r>
       <r>    1.1716    1.0000 </r>
       <r>    1.1716    1.0000 </r>
       <r>    1.1716    1.0000 </r>
       <r>    1.1717    1.0000 </r>
       <r>    1.1720    1.0000 </r>
       <r>    1.1737    1.0000 </r>
       <r>    1.1737    1.0000 </r>
       <r>    1.8539    1.0000 </r>
       <r>    1.8539    1.0000 </r>
       <r>    1.8539    1.0000 </r>
       <r>    1.8539    1.0000 </r>
       <r>    1.8539    1.0000 </r>
       <r>    1.8539    1.0000 </r>
       <r>    2.5826    1.0000 </r>
       <r>    2.5826    1.0000 </r>
       <r>    2.5841    1.0000 </r>
       <r>    2.5841    1.0000 </r>
       <r>    2.5842    1.0000 </r>
       <r>    2.5843    1.0000 </r>
       <r>    2.5843    1.0000 </r>
       <r>    2.5843    1.0000 </r>
       <r>    2.5844    1.0000 </r>
       <r>    2.5844    1.0000 </r>
       <r>    2.5859    1.0000 </r>
       <r>    2.5859    1.0000 </r>
       <r>    2.9288    1.0000 </r>
       <r>    2.9296    1.0000 </r>
       <r>    2.9304    1.0000 </r>
       <r>    2.9304    1.0000 </r>
       <r>    2.9304    1.0000 </r>
       <r>    2.9305    1.0000 </r>
       <r>    2.9305    1.0000 </r>
       <r>    2.9305    1.0000 </r>
       <r>    2.9305    1.0000 </r>
       <r>    2.9305    1.0000 </r>
       <r>    2.9312    1.0000 </r>
       <r>    2.9321    1.0000 </r>
       <r>    2.9718    1.0000 </r>
       <r>    2.9718    1.0000 </r>
       <r>    2.9718    1.0000 </r>
       <r>    2.9718    1.0000 </r>
       <r>    2.9718    1.0000 </r>
       <r>    2.9719    1.0000 </r>
       <r>    2.9719    1.0000 </r>
       <r>    2.9719    1.0000 </r>
       <r>    3.5878    1.0000 </r>
       <r>    3.5878    1.0000 </r>
       <r>    3.5878    1.0000 </r>
       <r>    6.3230    0.0000 </r>
       <r>    6.3230    0.0000 </r>
       <r>    6.3230    0.0000 </r>
       <r>    7.2837    0.0000 </r>
       <r>    7.7889    0.0000 </r>
       <r>    7.7889    0.0000 </r>
       <r>    7.7889    0.0000 </r>
       <r>    8.0074    0.0000 </r>
       <r>    8.0075    0.0000 </r>
       <r>    8.0075    0.0000 </r>
       <r>    8.0075    0.0000 </r>
       <r>    8.5741    0.0000 </r>
       <r>    8.5754    0.0000 </r>
       <r>    8.5754    0.0000 </r>
       <r>    8.5754    0.0000 </r>
       <r>    8.5754    0.0000 </r>
       <r>    8.5767    0.0000 </r>
       <r>    8.8495    0.0000 </r>
       <r>    8.8522    0.0000 </r>
       <r>    8.8522    0.0000 </r>
       <r>    8.8522    0.0000 </r>
       <r>    8.8522    0.0000 </r>
       <r>    8.8549    0.0000 </r>
       <r>    9.0401    0.0000 </r>
       <r>    9.0409    0.0000 </r>
       <r>    9.0409    0.0000 </r>
       <r>    9.0410    0.0000 </r>
       <r>    9.0410    0.0000 </r>
       <r>    9.0418    0.0000 </r>
       <r>    9.1837    0.0000 </r>
       <r>    9.1838    0.0000 </r>
       <r>    9.1838    0.0000 </r>
       <r>    9.1843    0.0000 </r>
       <r>    9.1845    0.0000 </r>
       <r>    9.1845    0.0000 </r>
       <r>    9.1845    0.0000 </r>
       <r>    9.1846    0.0000 </r>
       <r>    9.1848    0.0000 </r>
       <r>    9.1853    0.0000 </r>
       <r>    9.1853    0.0000 </r>
       <r>    9.1853    0.0000 </r>
       <r>   10.4315    0.0000 </r>
       <r>   10.4316    0.0000 </r>
       <r>   10.4316    0.0000 </r>
      </set>
      <set comment="kpoint 2">
       <r>  -37.6495    1.0000 </r>
       <r>  -37.6490    1.0000 </r>
       <r>  -37.6490    1.0000 </r>
       <r>  -37.6431    1.0000 </r>
       <r>  -37.6431    1.0000 </r>
       <r>  -37.6427    1.0000 </r>
       <r>  -37.6426    1.0000 </r>
       <r>  -37.6422    1.0000 </r>
       <r>  -37.6420    1.0000 </r>
       <r>  -37.6419    1.0000 </r>
       <r>  -37.6419    1.0000 </r>
       <r>  -37.6418    1.0000 </r>
       <r>  -37.6417    1.0000 </r>
       <r>  -37.6415    1.0000 </r>
       <r>  -37.6415    1.0000 </r>
       <r>  -37.6414    1.0000 </r>
       <r>  -37.6414    1.0000 </r>
       <r>  -37.6413    1.0000 </r>
       <r>  -37.6413    1.0000 </r>
       <r>  -37.6412    1.0000 </r>
       <r>  -37.6412    1.0000 </r>
       <r>  -37.6412    1.0000 </r>
       <r>  -37.6411    1.0000 </r>
       <r>  -37.6409    1.0000 </r>
       <r>  -37.6406    1.0000 </r>
       <r>  -37.6405    1.0000 </r>
       <r>  -37.6403    1.0000 </r>
       <r>  -37.6403    1.0000 </r>
       <r>  -37.6402    1.0000 </r>
       <r>  -37.6400    1.0000 </r>
       <r>  -37.6399    1.0000 </r>
       <r>  -37.6398    1.0000 </r>
       <r>  -37.6397    1.0000 </r>
       <r>  -37.6396    1.0000 </r>
       <r>  -37.6396    1.0000 </r>
       <r>  -37.6396    1.0000 </r>
       <r>  -37.6396    1.0000 </r>
       <r>  -37.6395    1.0000 </r>
       <r>  -37.6395    1.0000 </r>
       <r>  -37.6393    1.0000 </r>
       <r>  -37.6393    1.0000 </r>
       <r>  -37.6391    1.0000 </r>
       <r>  -37.6391    1.0000 </r>
       <r>  -37.6389    1.0000 </r>
       <r>  -37.6386    1.0000 </r>
       <r>  -37.6386    1.0000 </r>
       <r>  -37.6385    1.0000 </r>
       <r>  -37.6385    1.0000 </r>
       <r>  -37.6383    1.0000 </r>
       <r>  -37.6383    1.0000 </r>
       <r>  -37.6381    1.0000 </r>
       <r>  -37.6380    1.0000 </r>
       <r>  -37.6380    1.0000 </r>
       <r>  -37.6379    1.0000 </r>
       <r>  -37.6379    1.0000 </r>
       <r>  -37.6379    1.0000 </r>
       <r>  -37.6378    1.0000 </r>
       <r>  -37.6377    1.0000 </r>
       <r>  -37.6377    1.0000 </r>
       <r>  -37.6377    1.0000 </r>
       <r>  -37.6377    1.0000 </r>
       <r>  -37.6377    1.0000 </r>
       <r>  -37.6377    1.0000 </r>
       <r>  -37.6377    1.0000 </r>
       <r>  -37.6377    1.0000 </r>
       <r>  -37.6374    1.0000 </r>
       <r>  -37.6374    1.0000 </r>
       <r>  -37.6373    1.0000 </r>
       <r>  -37.6371    1.0000 </r>
       <r>  -37.6371    1.0000 </r>
       <r>  -37.6371    1.0000 </r>
       <r>  -37.6369    1.0000 </r>
       <r>  -37.6369    1.0000 </r>
       <r>  -37.6367    1.0000 </r>
       <r>  -37.6367    1.0000 </r>
       <r>  -37.6367    1.0000 </r>
       <r>  -37.6367    1.0000 </r>
       <r>  -37.6367    1.0000 </r>
       <r>  -37.6366    1.0000 </r>
       <r>  -37.6365    1.0000 </r>
       <r>  -37.6365    1.0000 </r>
       <r>  -37.6365    1.0000 </r>
       <r>  -37.6365    1.0000 </r>
       <r>  -37.6363    1.0000 </r>
       <r>  -37.6363    1.0000 </r>
       <r>  -37.6362    1.0000 </r>
       <r>  -37.6362    1.0000 </r>
       <r>  -37.6361    1.0000 </r>
       <r>  -37.6361    1.0000 </r>
       <r>  -37.6360    1.0000 </r>
       <r>  -37.6359    1.0000 </r>
       <r>  -37.6352    1.0000 </r>
       <r>  -37.6352    1.0000 </r>
       <r>  -37.6286    1.0000 </r>
       <r>  -37.6286    1.0000 </r>
       <r>  -37.6281    1.0000 </r>
       <r>   -8.9648    1.0000 </r>
       <r>   -8.9639    1.0000 </r>
       <r>   -8.2570    1.0000 </r>
       <r>   -8.2570    1.0000 </r>
       <r>   -8.2570    1.0000 </r>
       <r>   -8.2564    1.0000 </r>
       <r>   -8.2559    1.0000 </r>
       <r>   -8.2554    1.0000 </r>
       <r>   -8.2554    1.0000 </r>
       <r>   -8.2553    1.0000 </r>
       <r>   -7.8464    1.0000 </r>
       <r>   -7.8464    1.0000 </r>
       <r>   -7.8449    1.0000 </r>
       <r>   -7.8448    1.0000 </r>
       <r>   -7.8447    1.0000 </r>
       <r>   -7.8446    1.0000 </r>
       <r>   -7.8431    1.0000 </r>
       <r>   -7.8431    1.0000 </r>
       <r>   -7.7469    1.0000 </r>
       <r>   -7.7442    1.0000 </r>
       <r>   -7.5209    1.0000 </r>
       <r>   -7.5199    1.0000 </r>
       <r>   -7.5199    1.0000 </r>
       <r>   -7.5198    1.0000 </r>
       <r>   -7.5182    1.0000 </r>
       <r>   -7.5182    1.0000 </r>
       <r>   -7.5182    1.0000 </r>
       <r>   -7.5171    1.0000 </r>
       <r>   -7.4007    1.0000 </r>
       <r>   -7.3990    1.0000 </r>
       <r>   -7.3989    1.0000 </r>
       <r>   -7.3973    1.0000 </r>
       <r>   -0.9407    1.0000 </r>
       <r>   -0.9405    1.0000 </r>
       <r>   -0.9396    1.0000 </r>
       <r>   -0.9396    1.0000 </r>
       <r>   -0.9394    1.0000 </r>
       <r>   -0.9394    1.0000 </r>
       <r>   -0.9384    1.0000 </r>
       <r>   -0.9383    1.0000 </r>
       <r>   -0.4761    1.0000 </r>
       <r>   -0.4761    1.0000 </r>
       <r>   -0.4754    1.0000 </r>
       <r>   -0.4754    1.0000 </r>
       <r>   -0.2523    1.0000 </r>
       <r>   -0.2503    1.0000 </r>
       <r>   -0.2277    1.0000 </r>
       <r>   -0.2260    1.0000 </r>
       <r>   -0.2260    1.0000 </r>
       <r>   -0.2257    1.0000 </r>
       <r>   -0.2255    1.0000 </r>
       <r>   -0.2252    1.0000 </r>
       <r>   -0.2252    1.0000 </r>
       <r>   -0.2234    1.0000 </r>
       <r>    0.4353    1.0000 </r>
       <r>    0.4362    1.0000 </r>
       <r>    0.4362    1.0000 </r>
       <r>    0.4362    1.0000 </r>
       <r>    0.4372    1.0000 </r>
       <r>    0.4372    1.0000 </r>
       <r>    0.4372    1.0000 </r>
       <r>    0.4380    1.0000 </r>
       <r>    0.4934    1.0000 </r>
       <r>    0.4934    1.0000 </r>
       <r>    0.4941    1.0000 </r>
       <r>    0.4941    1.0000 </r>
       <r>    0.4942    1.0000 </r>
       <r>    0.4942    1.0000 </r>
       <r>    0.4949    1.0000 </r>
       <r>    0.4949    1.0000 </r>
       <r>    1.2586    1.0000 </r>
       <r>    1.2586    1.0000 </r>
       <r>    1.2616    1.0000 </r>
       <r>    1.2616    1.0000 </r>
       <r>    1.4680    1.0000 </r>
       <r>    1.4690    1.0000 </r>
       <r>    1.4694    1.0000 </r>
       <r>    1.4704    1.0000 </r>
       <r>    2.0491    1.0000 </r>
       <r>    2.0491    1.0000 </r>
       <r>    2.0499    1.0000 </r>
       <r>    2.0499    1.0000 </r>
       <r>    2.0751    1.0000 </r>
       <r>    2.0751    1.0000 </r>
       <r>    2.0766    1.0000 </r>
       <r>    2.0767    1.0000 </r>
       <r>    2.0781    1.0000 </r>
       <r>    2.0782    1.0000 </r>
       <r>    2.0795    1.0000 </r>
       <r>    2.0795    1.0000 </r>
       <r>    2.0828    1.0000 </r>
       <r>    2.0851    1.0000 </r>
       <r>    2.0851    1.0000 </r>
       <r>    2.0852    1.0000 </r>
       <r>    2.0857    1.0000 </r>
       <r>    2.0860    1.0000 </r>
       <r>    2.0860    1.0000 </r>
       <r>    2.0879    1.0000 </r>
       <r>    2.1779    1.0000 </r>
       <r>    2.1779    1.0000 </r>
       <r>    2.1784    1.0000 </r>
       <r>    2.1793    1.0000 </r>
       <r>    2.1799    1.0000 </r>
       <r>    2.1811    1.0000 </r>
       <r>    2.1814    1.0000 </r>
       <r>    2.1814    1.0000 </r>
       <r>    2.5516    1.0000 </r>
       <r>    2.5529    1.0000 </r>
       <r>    2.8833    1.0000 </r>
       <r>    2.8834    1.0000 </r>
       <r>    2.8834    1.0000 </r>
       <r>    2.8840    1.0000 </r>
       <r>    2.8844    1.0000 </r>
       <r>    2.8850    1.0000 </r>
       <r>    2.8850    1.0000 </r>
       <r>    2.8851    1.0000 </r>
       <r>    2.9492    1.0000 </r>
       <r>    2.9494    1.0000 </r>
       <r>    2.9509    1.0000 </r>
       <r>    2.9509    1.0000 </r>
       <r>    2.9510    1.0000 </r>
       <r>    2.9510    1.0000 </r>
       <r>    2.9525    1.0000 </r>
       <r>    2.9527    1.0000 </r>
       <r>    3.2487    1.0000 </r>
       <r>    3.2487    1.0000 </r>
       <r>    3.2515    1.0000 </r>
       <r>    3.2515    1.0000 </r>
       <r>    6.9664    0.0000 </r>
       <r>    6.9681    0.0000 </r>
       <r>    7.3588    0.0000 </r>
       <r>    7.3614    0.0000 </r>
       <r>    7.3619    0.0000 </r>
       <r>    7.3645    0.0000 </r>
       <r>    8.1076    0.0000 </r>
       <r>    8.1086    0.0000 </r>
       <r>    8.4434    0.0000 </r>
       <r>    8.4463    0.0000 </r>
       <r>    8.7988    0.0000 </r>
       <r>    8.7988    0.0000 </r>
       <r>    8.7991    0.0000 </r>
       <r>    8.8001    0.0000 </r>
       <r>    8.8014    0.0000 </r>
       <r>    8.8019    0.0000 </r>
       <r>    8.8025    0.0000 </r>
       <r>    8.8025    0.0000 </r>
       <r>    8.8249    0.0000 </r>
       <r>    8.8249    0.0000 </r>
       <r>    8.8255    0.0000 </r>
       <r>    8.8262    0.0000 </r>
       <r>    8.8263    0.0000 </r>
       <r>    8.8273    0.0000 </r>
       <r>    8.8277    0.0000 </r>
       <r>    8.8277    0.0000 </r>
       <r>    8.9219    0.0000 </r>
       <r>    8.9219    0.0000 </r>
       <r>    8.9245    0.0000 </r>
       <r>    8.9245    0.0000 </r>
       <r>    9.3708    0.0000 </r>
       <r>    9.3741    0.0000 </r>
       <r>    9.3741    0.0000 </r>
       <r>    9.3748    0.0000 </r>
       <r>    9.3751    0.0000 </r>
       <r>    9.3757    0.0000 </r>
       <r>    9.3757    0.0000 </r>
       <r>    9.3790    0.0000 </r>
       <r>    9.9417    0.0000 </r>
       <r>    9.9434    0.0000 </r>
       <r>    9.9446    0.0000 </r>
       <r>    9.9490    0.0000 </r>
       <r>    9.9526    0.0000 </r>
       <r>    9.9772    0.0000 </r>
      </set>
      <set comment="kpoint 3">
       <r>  -37.6495    1.0000 </r>
       <r>  -37.6490    1.0000 </r>
       <r>  -37.6490    1.0000 </r>
       <r>  -37.6428    1.0000 </r>
       <r>  -37.6428    1.0000 </r>
       <r>  -37.6426    1.0000 </r>
       <r>  -37.6425    1.0000 </r>
       <r>  -37.6425    1.0000 </r>
       <r>  -37.6425    1.0000 </r>
       <r>  -37.6425    1.0000 </r>
       <r>  -37.6423    1.0000 </r>
       <r>  -37.6421    1.0000 </r>
       <r>  -37.6420    1.0000 </r>
       <r>  -37.6420    1.0000 </r>
       <r>  -37.6414    1.0000 </r>
       <r>  -37.6412    1.0000 </r>
       <r>  -37.6411    1.0000 </r>
       <r>  -37.6410    1.0000 </r>
       <r>  -37.6410    1.0000 </r>
       <r>  -37.6409    1.0000 </r>
       <r>  -37.6408    1.0000 </r>
       <r>  -37.6407    1.0000 </r>
       <r>  -37.6406    1.0000 </r>
       <r>  -37.6406    1.0000 </r>
       <r>  -37.6404    1.0000 </r>
       <r>  -37.6403    1.0000 </r>
       <r>  -37.6402    1.0000 </r>
       <r>  -37.6402    1.0000 </r>
       <r>  -37.6400    1.0000 </r>
       <r>  -37.6400    1.0000 </r>
       <r>  -37.6400    1.0000 </r>
       <r>  -37.6399    1.0000 </r>
       <r>  -37.6399    1.0000 </r>
       <r>  -37.6398    1.0000 </r>
       <r>  -37.6398    1.0000 </r>
       <r>  -37.6398    1.0000 </r>
       <r>  -37.6397    1.0000 </r>
       <r>  -37.6396    1.0000 </r>
       <r>  -37.6394    1.0000 </r>
       <r>  -37.6394    1.0000 </r>
       <r>  -37.6394    1.0000 </r>
       <r>  -37.6392    1.0000 </r>
       <r>  -37.6392    1.0000 </r>
       <r>  -37.6389    1.0000 </r>
       <r>  -37.6388    1.0000 </r>
       <r>  -37.6387    1.0000 </r>
       <r>  -37.6386    1.0000 </r>
       <r>  -37.6386    1.0000 </r>
       <r>  -37.6384    1.0000 </r>
       <r>  -37.6384    1.0000 </r>
       <r>  -37.6383    1.0000 </r>
       <r>  -37.6382    1.0000 </r>
       <r>  -37.6382    1.0000 </r>
       <r>  -37.6379    1.0000 </r>
       <r>  -37.6379    1.0000 </r>
       <r>  -37.6378    1.0000 </r>
       <r>  -37.6378    1.0000 </r>
       <r>  -37.6378    1.0000 </r>
       <r>  -37.6375    1.0000 </r>
       <r>  -37.6375    1.0000 </r>
       <r>  -37.6375    1.0000 </r>
       <r>  -37.6375    1.0000 </r>
       <r>  -37.6374    1.0000 </r>
       <r>  -37.6373    1.0000 </r>
       <r>  -37.6373    1.0000 </r>
       <r>  -37.6373    1.0000 </r>
       <r>  -37.6373    1.0000 </r>
       <r>  -37.6373    1.0000 </r>
       <r>  -37.6373    1.0000 </r>
       <r>  -37.6372    1.0000 </r>
       <r>  -37.6372    1.0000 </r>
       <r>  -37.6371    1.0000 </r>
       <r>  -37.6371    1.0000 </r>
       <r>  -37.6370    1.0000 </r>
       <r>  -37.6370    1.0000 </r>
       <r>  -37.6369    1.0000 </r>
       <r>  -37.6367    1.0000 </r>
       <r>  -37.6367    1.0000 </r>
       <r>  -37.6366    1.0000 </r>
       <r>  -37.6366    1.0000 </r>
       <r>  -37.6366    1.0000 </r>
       <r>  -37.6365    1.0000 </r>
       <r>  -37.6364    1.0000 </r>
       <r>  -37.6364    1.0000 </r>
       <r>  -37.6364    1.0000 </r>
       <r>  -37.6361    1.0000 </r>
       <r>  -37.6361    1.0000 </r>
       <r>  -37.6358    1.0000 </r>
       <r>  -37.6357    1.0000 </r>
       <r>  -37.6357    1.0000 </r>
       <r>  -37.6356    1.0000 </r>
       <r>  -37.6356    1.0000 </r>
       <r>  -37.6356    1.0000 </r>
       <r>  -37.6286    1.0000 </r>
       <r>  -37.6286    1.0000 </r>
       <r>  -37.6281    1.0000 </r>
       <r>   -8.9644    1.0000 </r>
       <r>   -8.9644    1.0000 </r>
       <r>   -8.2575    1.0000 </r>
       <r>   -8.2567    1.0000 </r>
       <r>   -8.2562    1.0000 </r>
       <r>   -8.2562    1.0000 </r>
       <r>   -8.2562    1.0000 </r>
       <r>   -8.2562    1.0000 </r>
       <r>   -8.2556    1.0000 </r>
       <r>   -8.2548    1.0000 </r>
       <r>   -7.8459    1.0000 </r>
       <r>   -7.8448    1.0000 </r>
       <r>   -7.8448    1.0000 </r>
       <r>   -7.8448    1.0000 </r>
       <r>   -7.8447    1.0000 </r>
       <r>   -7.8447    1.0000 </r>
       <r>   -7.8447    1.0000 </r>
       <r>   -7.8436    1.0000 </r>
       <r>   -7.7456    1.0000 </r>
       <r>   -7.7456    1.0000 </r>
       <r>   -7.5196    1.0000 </r>
       <r>   -7.5194    1.0000 </r>
       <r>   -7.5190    1.0000 </r>
       <r>   -7.5190    1.0000 </r>
       <r>   -7.5190    1.0000 </r>
       <r>   -7.5190    1.0000 </r>
       <r>   -7.5186    1.0000 </r>
       <r>   -7.5184    1.0000 </r>
       <r>   -7.3990    1.0000 </r>
       <r>   -7.3990    1.0000 </r>
       <r>   -7.3990    1.0000 </r>
       <r>   -7.3989    1.0000 </r>
       <r>   -0.9405    1.0000 </r>
       <r>   -0.9398    1.0000 </r>
       <r>   -0.9396    1.0000 </r>
       <r>   -0.9395    1.0000 </r>
       <r>   -0.9395    1.0000 </r>
       <r>   -0.9393    1.0000 </r>
       <r>   -0.9391    1.0000 </r>
       <r>   -0.9385    1.0000 </r>
       <r>   -0.4757    1.0000 </r>
       <r>   -0.4757    1.0000 </r>
       <r>   -0.4757    1.0000 </r>
       <r>   -0.4757    1.0000 </r>
       <r>   -0.2513    1.0000 </r>
       <r>   -0.2513    1.0000 </r>
       <r>   -0.2264    1.0000 </r>
       <r>   -0.2260    1.0000 </r>
       <r>   -0.2256    1.0000 </r>
       <r>   -0.2256    1.0000 </r>
       <r>   -0.2256    1.0000 </r>
       <r>   -0.2256    1.0000 </r>
       <r>   -0.2251    1.0000 </r>
       <r>   -0.2248    1.0000 </r>
       <r>    0.4357    1.0000 </r>
       <r>    0.4364    1.0000 </r>
       <r>    0.4366    1.0000 </r>
       <r>    0.4367    1.0000 </r>
       <r>    0.4367    1.0000 </r>
       <r>    0.4367    1.0000 </r>
       <r>    0.4370    1.0000 </r>
       <r>    0.4376    1.0000 </r>
       <r>    0.4920    1.0000 </r>
       <r>    0.4941    1.0000 </r>
       <r>    0.4941    1.0000 </r>
       <r>    0.4941    1.0000 </r>
       <r>    0.4941    1.0000 </r>
       <r>    0.4942    1.0000 </r>
       <r>    0.4942    1.0000 </r>
       <r>    0.4963    1.0000 </r>
       <r>    1.2600    1.0000 </r>
       <r>    1.2600    1.0000 </r>
       <r>    1.2601    1.0000 </r>
       <r>    1.2601    1.0000 </r>
       <r>    1.4692    1.0000 </r>
       <r>    1.4692    1.0000 </r>
       <r>    1.4692    1.0000 </r>
       <r>    1.4692    1.0000 </r>
       <r>    2.0494    1.0000 </r>
       <r>    2.0494    1.0000 </r>
       <r>    2.0495    1.0000 </r>
       <r>    2.0495    1.0000 </r>
       <r>    2.0755    1.0000 </r>
       <r>    2.0771    1.0000 </r>
       <r>    2.0771    1.0000 </r>
       <r>    2.0774    1.0000 </r>
       <r>    2.0774    1.0000 </r>
       <r>    2.0774    1.0000 </r>
       <r>    2.0775    1.0000 </r>
       <r>    2.0792    1.0000 </r>
       <r>    2.0846    1.0000 </r>
       <r>    2.0850    1.0000 </r>
       <r>    2.0854    1.0000 </r>
       <r>    2.0854    1.0000 </r>
       <r>    2.0855    1.0000 </r>
       <r>    2.0856    1.0000 </r>
       <r>    2.0861    1.0000 </r>
       <r>    2.0866    1.0000 </r>
       <r>    2.1777    1.0000 </r>
       <r>    2.1794    1.0000 </r>
       <r>    2.1794    1.0000 </r>
       <r>    2.1796    1.0000 </r>
       <r>    2.1797    1.0000 </r>
       <r>    2.1798    1.0000 </r>
       <r>    2.1799    1.0000 </r>
       <r>    2.1817    1.0000 </r>
       <r>    2.5523    1.0000 </r>
       <r>    2.5523    1.0000 </r>
       <r>    2.8828    1.0000 </r>
       <r>    2.8832    1.0000 </r>
       <r>    2.8842    1.0000 </r>
       <r>    2.8842    1.0000 </r>
       <r>    2.8842    1.0000 </r>
       <r>    2.8842    1.0000 </r>
       <r>    2.8852    1.0000 </r>
       <r>    2.8857    1.0000 </r>
       <r>    2.9498    1.0000 </r>
       <r>    2.9510    1.0000 </r>
       <r>    2.9510    1.0000 </r>
       <r>    2.9510    1.0000 </r>
       <r>    2.9510    1.0000 </r>
       <r>    2.9510    1.0000 </r>
       <r>    2.9510    1.0000 </r>
       <r>    2.9521    1.0000 </r>
       <r>    3.2501    1.0000 </r>
       <r>    3.2501    1.0000 </r>
       <r>    3.2501    1.0000 </r>
       <r>    3.2501    1.0000 </r>
       <r>    6.9672    0.0000 </r>
       <r>    6.9672    0.0000 </r>
       <r>    7.3616    0.0000 </r>
       <r>    7.3616    0.0000 </r>
       <r>    7.3616    0.0000 </r>
       <r>    7.3616    0.0000 </r>
       <r>    8.1081    0.0000 </r>
       <r>    8.1081    0.0000 </r>
       <r>    8.4448    0.0000 </r>
       <r>    8.4449    0.0000 </r>
       <r>    8.7983    0.0000 </r>
       <r>    8.8004    0.0000 </r>
       <r>    8.8005    0.0000 </r>
       <r>    8.8007    0.0000 </r>
       <r>    8.8007    0.0000 </r>
       <r>    8.8007    0.0000 </r>
       <r>    8.8009    0.0000 </r>
       <r>    8.8027    0.0000 </r>
       <r>    8.8250    0.0000 </r>
       <r>    8.8251    0.0000 </r>
       <r>    8.8253    0.0000 </r>
       <r>    8.8261    0.0000 </r>
       <r>    8.8264    0.0000 </r>
       <r>    8.8274    0.0000 </r>
       <r>    8.8275    0.0000 </r>
       <r>    8.8277    0.0000 </r>
       <r>    8.9232    0.0000 </r>
       <r>    8.9232    0.0000 </r>
       <r>    8.9232    0.0000 </r>
       <r>    8.9233    0.0000 </r>
       <r>    9.3733    0.0000 </r>
       <r>    9.3746    0.0000 </r>
       <r>    9.3749    0.0000 </r>
       <r>    9.3749    0.0000 </r>
       <r>    9.3749    0.0000 </r>
       <r>    9.3750    0.0000 </r>
       <r>    9.3752    0.0000 </r>
       <r>    9.3766    0.0000 </r>
       <r>    9.9432    0.0000 </r>
       <r>    9.9436    0.0000 </r>
       <r>    9.9463    0.0000 </r>
       <r>    9.9477    0.0000 </r>
       <r>    9.9493    0.0000 </r>
       <r>    9.9647    0.0000 </r>
      </set>
      <set comment="kpoint 4">
       <r>  -37.6495    1.0000 </r>
       <r>  -37.6490    1.0000 </r>
       <r>  -37.6490    1.0000 </r>
       <r>  -37.6426    1.0000 </r>
       <r>  -37.6426    1.0000 </r>
       <r>  -37.6425    1.0000 </r>
       <r>  -37.6425    1.0000 </r>
       <r>  -37.6423    1.0000 </r>
       <r>  -37.6423    1.0000 </r>
       <r>  -37.6422    1.0000 </r>
       <r>  -37.6422    1.0000 </r>
       <r>  -37.6420    1.0000 </r>
       <r>  -37.6419    1.0000 </r>
       <r>  -37.6418    1.0000 </r>
       <r>  -37.6415    1.0000 </r>
       <r>  -37.6415    1.0000 </r>
       <r>  -37.6414    1.0000 </r>
       <r>  -37.6414    1.0000 </r>
       <r>  -37.6413    1.0000 </r>
       <r>  -37.6412    1.0000 </r>
       <r>  -37.6412    1.0000 </r>
       <r>  -37.6410    1.0000 </r>
       <r>  -37.6409    1.0000 </r>
       <r>  -37.6408    1.0000 </r>
       <r>  -37.6408    1.0000 </r>
       <r>  -37.6408    1.0000 </r>
       <r>  -37.6406    1.0000 </r>
       <r>  -37.6405    1.0000 </r>
       <r>  -37.6405    1.0000 </r>
       <r>  -37.6404    1.0000 </r>
       <r>  -37.6402    1.0000 </r>
       <r>  -37.6399    1.0000 </r>
       <r>  -37.6399    1.0000 </r>
       <r>  -37.6397    1.0000 </r>
       <r>  -37.6396    1.0000 </r>
       <r>  -37.6393    1.0000 </r>
       <r>  -37.6391    1.0000 </r>
       <r>  -37.6391    1.0000 </r>
       <r>  -37.6390    1.0000 </r>
       <r>  -37.6389    1.0000 </r>
       <r>  -37.6388    1.0000 </r>
       <r>  -37.6387    1.0000 </r>
       <r>  -37.6387    1.0000 </r>
       <r>  -37.6387    1.0000 </r>
       <r>  -37.6386    1.0000 </r>
       <r>  -37.6386    1.0000 </r>
       <r>  -37.6384    1.0000 </r>
       <r>  -37.6384    1.0000 </r>
       <r>  -37.6383    1.0000 </r>
       <r>  -37.6382    1.0000 </r>
       <r>  -37.6382    1.0000 </r>
       <r>  -37.6382    1.0000 </r>
       <r>  -37.6382    1.0000 </r>
       <r>  -37.6381    1.0000 </r>
       <r>  -37.6381    1.0000 </r>
       <r>  -37.6381    1.0000 </r>
       <r>  -37.6380    1.0000 </r>
       <r>  -37.6379    1.0000 </r>
       <r>  -37.6379    1.0000 </r>
       <r>  -37.6378    1.0000 </r>
       <r>  -37.6378    1.0000 </r>
       <r>  -37.6377    1.0000 </r>
       <r>  -37.6376    1.0000 </r>
       <r>  -37.6375    1.0000 </r>
       <r>  -37.6374    1.0000 </r>
       <r>  -37.6373    1.0000 </r>
       <r>  -37.6373    1.0000 </r>
       <r>  -37.6373    1.0000 </r>
       <r>  -37.6372    1.0000 </r>
       <r>  -37.6372    1.0000 </r>
       <r>  -37.6372    1.0000 </r>
       <r>  -37.6371    1.0000 </r>
       <r>  -37.6371    1.0000 </r>
       <r>  -37.6371    1.0000 </r>
       <r>  -37.6371    1.0000 </r>
       <r>  -37.6370    1.0000 </r>
       <r>  -37.6369    1.0000 </r>
       <r>  -37.6368    1.0000 </r>
       <r>  -37.6368    1.0000 </r>
       <r>  -37.6367    1.0000 </r>
       <r>  -37.6366    1.0000 </r>
       <r>  -37.6365    1.0000 </r>
       <r>  -37.6365    1.0000 </r>
       <r>  -37.6365    1.0000 </r>
       <r>  -37.6364    1.0000 </r>
       <r>  -37.6362    1.0000 </r>
       <r>  -37.6361    1.0000 </r>
       <r>  -37.6357    1.0000 </r>
       <r>  -37.6357    1.0000 </r>
       <r>  -37.6356    1.0000 </r>
       <r>  -37.6356    1.0000 </r>
       <r>  -37.6355    1.0000 </r>
       <r>  -37.6354    1.0000 </r>
       <r>  -37.6286    1.0000 </r>
       <r>  -37.6286    1.0000 </r>
       <r>  -37.6281    1.0000 </r>
       <r>   -8.7693    1.0000 </r>
       <r>   -8.7691    1.0000 </r>
       <r>   -8.7684    1.0000 </r>
       <r>   -8.7682    1.0000 </r>
       <r>   -8.1322    1.0000 </r>
       <r>   -8.1317    1.0000 </r>
       <r>   -8.1312    1.0000 </r>
       <r>   -8.1309    1.0000 </r>
       <r>   -8.1309    1.0000 </r>
       <r>   -8.1306    1.0000 </r>
       <r>   -8.1300    1.0000 </r>
       <r>   -8.1295    1.0000 </r>
       <r>   -7.6724    1.0000 </r>
       <r>   -7.6712    1.0000 </r>
       <r>   -7.6711    1.0000 </r>
       <r>   -7.6705    1.0000 </r>
       <r>   -7.6700    1.0000 </r>
       <r>   -7.6694    1.0000 </r>
       <r>   -7.6692    1.0000 </r>
       <r>   -7.6681    1.0000 </r>
       <r>   -7.6025    1.0000 </r>
       <r>   -7.6024    1.0000 </r>
       <r>   -7.6018    1.0000 </r>
       <r>   -7.6013    1.0000 </r>
       <r>   -7.6007    1.0000 </r>
       <r>   -7.6002    1.0000 </r>
       <r>   -7.5996    1.0000 </r>
       <r>   -7.5994    1.0000 </r>
       <r>   -7.4227    1.0000 </r>
       <r>   -7.4220    1.0000 </r>
       <r>   -7.4209    1.0000 </r>
       <r>   -7.4202    1.0000 </r>
       <r>   -0.8411    1.0000 </r>
       <r>   -0.8410    1.0000 </r>
       <r>   -0.8409    1.0000 </r>
       <r>   -0.8406    1.0000 </r>
       <r>   -0.8403    1.0000 </r>
       <r>   -0.8401    1.0000 </r>
       <r>   -0.8399    1.0000 </r>
       <r>   -0.8399    1.0000 </r>
       <r>   -0.2772    1.0000 </r>
       <r>   -0.2759    1.0000 </r>
       <r>   -0.2758    1.0000 </r>
       <r>   -0.2754    1.0000 </r>
       <r>   -0.2752    1.0000 </r>
       <r>   -0.2747    1.0000 </r>
       <r>   -0.2747    1.0000 </r>
       <r>   -0.2735    1.0000 </r>
       <r>   -0.2662    1.0000 </r>
       <r>   -0.2658    1.0000 </r>
       <r>   -0.2656    1.0000 </r>
       <r>   -0.2655    1.0000 </r>
       <r>   -0.2645    1.0000 </r>
       <r>   -0.2644    1.0000 </r>
       <r>   -0.2641    1.0000 </r>
       <r>   -0.2636    1.0000 </r>
       <r>   -0.2236    1.0000 </r>
       <r>   -0.2233    1.0000 </r>
       <r>   -0.2229    1.0000 </r>
       <r>   -0.2226    1.0000 </r>
       <r>    0.3040    1.0000 </r>
       <r>    0.3044    1.0000 </r>
       <r>    0.3058    1.0000 </r>
       <r>    0.3062    1.0000 </r>
       <r>    1.3725    1.0000 </r>
       <r>    1.3735    1.0000 </r>
       <r>    1.3735    1.0000 </r>
       <r>    1.3736    1.0000 </r>
       <r>    1.3742    1.0000 </r>
       <r>    1.3742    1.0000 </r>
       <r>    1.3743    1.0000 </r>
       <r>    1.3752    1.0000 </r>
       <r>    1.4742    1.0000 </r>
       <r>    1.4764    1.0000 </r>
       <r>    1.4764    1.0000 </r>
       <r>    1.4768    1.0000 </r>
       <r>    1.4774    1.0000 </r>
       <r>    1.4778    1.0000 </r>
       <r>    1.4779    1.0000 </r>
       <r>    1.4801    1.0000 </r>
       <r>    1.5920    1.0000 </r>
       <r>    1.5924    1.0000 </r>
       <r>    1.5930    1.0000 </r>
       <r>    1.5935    1.0000 </r>
       <r>    1.9422    1.0000 </r>
       <r>    1.9434    1.0000 </r>
       <r>    1.9440    1.0000 </r>
       <r>    1.9441    1.0000 </r>
       <r>    1.9448    1.0000 </r>
       <r>    1.9449    1.0000 </r>
       <r>    1.9455    1.0000 </r>
       <r>    1.9467    1.0000 </r>
       <r>    2.1802    1.0000 </r>
       <r>    2.1803    1.0000 </r>
       <r>    2.1809    1.0000 </r>
       <r>    2.1811    1.0000 </r>
       <r>    2.3926    1.0000 </r>
       <r>    2.3940    1.0000 </r>
       <r>    2.3942    1.0000 </r>
       <r>    2.3944    1.0000 </r>
       <r>    2.3950    1.0000 </r>
       <r>    2.3952    1.0000 </r>
       <r>    2.3954    1.0000 </r>
       <r>    2.3968    1.0000 </r>
       <r>    2.6344    1.0000 </r>
       <r>    2.6349    1.0000 </r>
       <r>    2.6352    1.0000 </r>
       <r>    2.6353    1.0000 </r>
       <r>    2.6362    1.0000 </r>
       <r>    2.6363    1.0000 </r>
       <r>    2.6366    1.0000 </r>
       <r>    2.6370    1.0000 </r>
       <r>    2.7658    1.0000 </r>
       <r>    2.7659    1.0000 </r>
       <r>    2.7659    1.0000 </r>
       <r>    2.7664    1.0000 </r>
       <r>    2.7666    1.0000 </r>
       <r>    2.7669    1.0000 </r>
       <r>    2.7670    1.0000 </r>
       <r>    2.7671    1.0000 </r>
       <r>    2.8437    1.0000 </r>
       <r>    2.8455    1.0000 </r>
       <r>    2.8465    1.0000 </r>
       <r>    2.8483    1.0000 </r>
       <r>    3.4736    1.0000 </r>
       <r>    3.4738    1.0000 </r>
       <r>    3.4745    1.0000 </r>
       <r>    3.4747    1.0000 </r>
       <r>    7.4258    0.0000 </r>
       <r>    7.4261    0.0000 </r>
       <r>    7.4275    0.0000 </r>
       <r>    7.4277    0.0000 </r>
       <r>    7.9057    0.0000 </r>
       <r>    7.9081    0.0000 </r>
       <r>    7.9083    0.0000 </r>
       <r>    7.9084    0.0000 </r>
       <r>    7.9091    0.0000 </r>
       <r>    7.9092    0.0000 </r>
       <r>    7.9093    0.0000 </r>
       <r>    7.9118    0.0000 </r>
       <r>    8.7769    0.0000 </r>
       <r>    8.7782    0.0000 </r>
       <r>    8.7784    0.0000 </r>
       <r>    8.7786    0.0000 </r>
       <r>    8.7788    0.0000 </r>
       <r>    8.7791    0.0000 </r>
       <r>    8.7792    0.0000 </r>
       <r>    8.7805    0.0000 </r>
       <r>    8.9461    0.0000 </r>
       <r>    8.9472    0.0000 </r>
       <r>    8.9496    0.0000 </r>
       <r>    8.9507    0.0000 </r>
       <r>    9.1213    0.0000 </r>
       <r>    9.1235    0.0000 </r>
       <r>    9.1235    0.0000 </r>
       <r>    9.1239    0.0000 </r>
       <r>    9.1243    0.0000 </r>
       <r>    9.1246    0.0000 </r>
       <r>    9.1247    0.0000 </r>
       <r>    9.1265    0.0000 </r>
       <r>    9.1914    0.0000 </r>
       <r>    9.1941    0.0000 </r>
       <r>    9.1943    0.0000 </r>
       <r>    9.1946    0.0000 </r>
       <r>    9.1949    0.0000 </r>
       <r>    9.1952    0.0000 </r>
       <r>    9.1955    0.0000 </r>
       <r>    9.1985    0.0000 </r>
       <r>    9.6033    0.0000 </r>
       <r>    9.6037    0.0000 </r>
       <r>    9.6038    0.0000 </r>
       <r>    9.6046    0.0000 </r>
      </set>
      <set comment="kpoint 5">
       <r>  -37.6495    1.0000 </r>
       <r>  -37.6490    1.0000 </r>
       <r>  -37.6490    1.0000 </r>
       <r>  -37.6429    1.0000 </r>
       <r>  -37.6429    1.0000 </r>
       <r>  -37.6423    1.0000 </r>
       <r>  -37.6423    1.0000 </r>
       <r>  -37.6422    1.0000 </r>
       <r>  -37.6420    1.0000 </r>
       <r>  -37.6420    1.0000 </r>
       <r>  -37.6420    1.0000 </r>
       <r>  -37.6420    1.0000 </r>
       <r>  -37.6420    1.0000 </r>
       <r>  -37.6418    1.0000 </r>
       <r>  -37.6417    1.0000 </r>
       <r>  -37.6417    1.0000 </r>
       <r>  -37.6415    1.0000 </r>
       <r>  -37.6415    1.0000 </r>
       <r>  -37.6415    1.0000 </r>
       <r>  -37.6415    1.0000 </r>
       <r>  -37.6410    1.0000 </r>
       <r>  -37.6409    1.0000 </r>
       <r>  -37.6408    1.0000 </r>
       <r>  -37.6408    1.0000 </r>
       <r>  -37.6408    1.0000 </r>
       <r>  -37.6407    1.0000 </r>
       <r>  -37.6407    1.0000 </r>
       <r>  -37.6405    1.0000 </r>
       <r>  -37.6404    1.0000 </r>
       <r>  -37.6404    1.0000 </r>
       <r>  -37.6399    1.0000 </r>
       <r>  -37.6399    1.0000 </r>
       <r>  -37.6398    1.0000 </r>
       <r>  -37.6395    1.0000 </r>
       <r>  -37.6395    1.0000 </r>
       <r>  -37.6394    1.0000 </r>
       <r>  -37.6393    1.0000 </r>
       <r>  -37.6391    1.0000 </r>
       <r>  -37.6391    1.0000 </r>
       <r>  -37.6388    1.0000 </r>
       <r>  -37.6387    1.0000 </r>
       <r>  -37.6387    1.0000 </r>
       <r>  -37.6387    1.0000 </r>
       <r>  -37.6387    1.0000 </r>
       <r>  -37.6386    1.0000 </r>
       <r>  -37.6386    1.0000 </r>
       <r>  -37.6386    1.0000 </r>
       <r>  -37.6386    1.0000 </r>
       <r>  -37.6386    1.0000 </r>
       <r>  -37.6385    1.0000 </r>
       <r>  -37.6385    1.0000 </r>
       <r>  -37.6385    1.0000 </r>
       <r>  -37.6382    1.0000 </r>
       <r>  -37.6382    1.0000 </r>
       <r>  -37.6382    1.0000 </r>
       <r>  -37.6382    1.0000 </r>
       <r>  -37.6379    1.0000 </r>
       <r>  -37.6379    1.0000 </r>
       <r>  -37.6379    1.0000 </r>
       <r>  -37.6379    1.0000 </r>
       <r>  -37.6375    1.0000 </r>
       <r>  -37.6374    1.0000 </r>
       <r>  -37.6374    1.0000 </r>
       <r>  -37.6372    1.0000 </r>
       <r>  -37.6372    1.0000 </r>
       <r>  -37.6371    1.0000 </r>
       <r>  -37.6371    1.0000 </r>
       <r>  -37.6371    1.0000 </r>
       <r>  -37.6371    1.0000 </r>
       <r>  -37.6370    1.0000 </r>
       <r>  -37.6370    1.0000 </r>
       <r>  -37.6370    1.0000 </r>
       <r>  -37.6370    1.0000 </r>
       <r>  -37.6369    1.0000 </r>
       <r>  -37.6369    1.0000 </r>
       <r>  -37.6369    1.0000 </r>
       <r>  -37.6369    1.0000 </r>
       <r>  -37.6368    1.0000 </r>
       <r>  -37.6368    1.0000 </r>
       <r>  -37.6368    1.0000 </r>
       <r>  -37.6368    1.0000 </r>
       <r>  -37.6367    1.0000 </r>
       <r>  -37.6367    1.0000 </r>
       <r>  -37.6365    1.0000 </r>
       <r>  -37.6364    1.0000 </r>
       <r>  -37.6363    1.0000 </r>
       <r>  -37.6362    1.0000 </r>
       <r>  -37.6359    1.0000 </r>
       <r>  -37.6359    1.0000 </r>
[...]
      </set>
     </set>
    </set>
   </array>
  </eigenvalues>
  <separator name="orbital magnetization" >
   <v name="MAGDIPOLOUT">      0.00000000      0.00000000      0.00000000</v>
  </separator>
  <dos>
   <i name="efermi">      3.71222950 </i>
   <total>
    <array>
     <dimension dim="1">gridpoints</dimension>
     <dimension dim="2">spin</dimension>
     <field>energy</field>
     <field>total</field>
     <field>integrated</field>
     <set>
      <set comment="spin 1">
       <r>   -40.0536     0.0000     0.0000 </r>
       <r>   -39.8773     0.0000     0.0000 </r>
       <r>   -39.7010     0.0000     0.0000 </r>
       <r>   -39.5247     0.0000     0.0000 </r>
       <r>   -39.3484     0.0000     0.0000 </r>
       <r>   -39.1721     0.0000     0.0000 </r>
       <r>   -38.9958     0.0000     0.0000 </r>
       <r>   -38.8195     0.0000     0.0000 </r>
       <r>   -38.6432     0.0000     0.0000 </r>
       <r>   -38.4669     0.0000     0.0000 </r>
       <r>   -38.2906     0.0000     0.0000 </r>
       <r>   -38.1143     0.0000     0.0000 </r>
       <r>   -37.9381     0.0000     0.0000 </r>
       <r>   -37.7618     0.0000     0.0000 </r>
       <r>   -37.5855  1089.0683   192.0000 </r>
       <r>   -37.4092     0.0000   192.0000 </r>
       <r>   -37.2329     0.0000   192.0000 </r>
       <r>   -37.0566     0.0000   192.0000 </r>
       <r>   -36.8803     0.0000   192.0000 </r>
       <r>   -36.7040     0.0000   192.0000 </r>
       <r>   -36.5277     0.0000   192.0000 </r>
       <r>   -36.3514     0.0000   192.0000 </r>
       <r>   -36.1751     0.0000   192.0000 </r>
       <r>   -35.9988     0.0000   192.0000 </r>
       <r>   -35.8225     0.0000   192.0000 </r>
       <r>   -35.6462     0.0000   192.0000 </r>
       <r>   -35.4699     0.0000   192.0000 </r>
       <r>   -35.2936     0.0000   192.0000 </r>
       <r>   -35.1173     0.0000   192.0000 </r>
       <r>   -34.9410     0.0000   192.0000 </r>
       <r>   -34.7647     0.0000   192.0000 </r>
       <r>   -34.5884     0.0000   192.0000 </r>
       <r>   -34.4121     0.0000   192.0000 </r>
       <r>   -34.2358     0.0000   192.0000 </r>
       <r>   -34.0595     0.0000   192.0000 </r>
       <r>   -33.8832     0.0000   192.0000 </r>
       <r>   -33.7069     0.0000   192.0000 </r>
       <r>   -33.5306     0.0000   192.0000 </r>
       <r>   -33.3543     0.0000   192.0000 </r>
       <r>   -33.1780     0.0000   192.0000 </r>
       <r>   -33.0017     0.0000   192.0000 </r>
       <r>   -32.8254     0.0000   192.0000 </r>
       <r>   -32.6491     0.0000   192.0000 </r>
       <r>   -32.4728     0.0000   192.0000 </r>
       <r>   -32.2965     0.0000   192.0000 </r>
       <r>   -32.1202     0.0000   192.0000 </r>
       <r>   -31.9439     0.0000   192.0000 </r>
       <r>   -31.7676     0.0000   192.0000 </r>
       <r>   -31.5913     0.0000   192.0000 </r>
       <r>   -31.4150     0.0000   192.0000 </r>
       <r>   -31.2387     0.0000   192.0000 </r>
       <r>   -31.0625     0.0000   192.0000 </r>
       <r>   -30.8862     0.0000   192.0000 </r>
       <r>   -30.7099     0.0000   192.0000 </r>
       <r>   -30.5336     0.0000   192.0000 </r>
       <r>   -30.3573     0.0000   192.0000 </r>
       <r>   -30.1810     0.0000   192.0000 </r>
       <r>   -30.0047     0.0000   192.0000 </r>
       <r>   -29.8284     0.0000   192.0000 </r>
       <r>   -29.6521     0.0000   192.0000 </r>
       <r>   -29.4758     0.0000   192.0000 </r>
       <r>   -29.2995     0.0000   192.0000 </r>
       <r>   -29.1232     0.0000   192.0000 </r>
       <r>   -28.9469     0.0000   192.0000 </r>
       <r>   -28.7706     0.0000   192.0000 </r>
       <r>   -28.5943     0.0000   192.0000 </r>
       <r>   -28.4180     0.0000   192.0000 </r>
       <r>   -28.2417     0.0000   192.0000 </r>
       <r>   -28.0654     0.0000   192.0000 </r>
       <r>   -27.8891     0.0000   192.0000 </r>
       <r>   -27.7128     0.0000   192.0000 </r>
       <r>   -27.5365     0.0000   192.0000 </r>
       <r>   -27.3602     0.0000   192.0000 </r>
       <r>   -27.1839     0.0000   192.0000 </r>
       <r>   -27.0076     0.0000   192.0000 </r>
       <r>   -26.8313     0.0000   192.0000 </r>
       <r>   -26.6550     0.0000   192.0000 </r>
       <r>   -26.4787     0.0000   192.0000 </r>
       <r>   -26.3024     0.0000   192.0000 </r>
       <r>   -26.1261     0.0000   192.0000 </r>
       <r>   -25.9498     0.0000   192.0000 </r>
       <r>   -25.7735     0.0000   192.0000 </r>
       <r>   -25.5972     0.0000   192.0000 </r>
       <r>   -25.4209     0.0000   192.0000 </r>
       <r>   -25.2446     0.0000   192.0000 </r>
       <r>   -25.0683     0.0000   192.0000 </r>
       <r>   -24.8920     0.0000   192.0000 </r>
       <r>   -24.7157     0.0000   192.0000 </r>
       <r>   -24.5394     0.0000   192.0000 </r>
       <r>   -24.3631     0.0000   192.0000 </r>
       <r>   -24.1868     0.0000   192.0000 </r>
       <r>   -24.0106     0.0000   192.0000 </r>
       <r>   -23.8343     0.0000   192.0000 </r>
       <r>   -23.6580     0.0000   192.0000 </r>
       <r>   -23.4817     0.0000   192.0000 </r>
       <r>   -23.3054     0.0000   192.0000 </r>
       <r>   -23.1291     0.0000   192.0000 </r>
       <r>   -22.9528     0.0000   192.0000 </r>
       <r>   -22.7765     0.0000   192.0000 </r>
       <r>   -22.6002     0.0000   192.0000 </r>
       <r>   -22.4239     0.0000   192.0000 </r>
       <r>   -22.2476     0.0000   192.0000 </r>
       <r>   -22.0713     0.0000   192.0000 </r>
       <r>   -21.8950     0.0000   192.0000 </r>
       <r>   -21.7187     0.0000   192.0000 </r>
       <r>   -21.5424     0.0000   192.0000 </r>
       <r>   -21.3661     0.0000   192.0000 </r>
       <r>   -21.1898     0.0000   192.0000 </r>
       <r>   -21.0135     0.0000   192.0000 </r>
       <r>   -20.8372     0.0000   192.0000 </r>
       <r>   -20.6609     0.0000   192.0000 </r>
       <r>   -20.4846     0.0000   192.0000 </r>
       <r>   -20.3083     0.0000   192.0000 </r>
       <r>   -20.1320     0.0000   192.0000 </r>
       <r>   -19.9557     0.0000   192.0000 </r>
       <r>   -19.7794     0.0000   192.0000 </r>
       <r>   -19.6031     0.0000   192.0000 </r>
       <r>   -19.4268     0.0000   192.0000 </r>
       <r>   -19.2505     0.0000   192.0000 </r>
       <r>   -19.0742     0.0000   192.0000 </r>
       <r>   -18.8979     0.0000   192.0000 </r>
       <r>   -18.7216     0.0000   192.0000 </r>
       <r>   -18.5453     0.0000   192.0000 </r>
       <r>   -18.3690     0.0000   192.0000 </r>
       <r>   -18.1927     0.0000   192.0000 </r>
       <r>   -18.0164     0.0000   192.0000 </r>
       <r>   -17.8401     0.0000   192.0000 </r>
       <r>   -17.6638     0.0000   192.0000 </r>
       <r>   -17.4875     0.0000   192.0000 </r>
       <r>   -17.3112     0.0000   192.0000 </r>
       <r>   -17.1349     0.0000   192.0000 </r>
       <r>   -16.9587     0.0000   192.0000 </r>
       <r>   -16.7824     0.0000   192.0000 </r>
       <r>   -16.6061     0.0000   192.0000 </r>
       <r>   -16.4298     0.0000   192.0000 </r>
       <r>   -16.2535     0.0000   192.0000 </r>
       <r>   -16.0772     0.0000   192.0000 </r>
       <r>   -15.9009     0.0000   192.0000 </r>
       <r>   -15.7246     0.0000   192.0000 </r>
       <r>   -15.5483     0.0000   192.0000 </r>
       <r>   -15.3720     0.0000   192.0000 </r>
       <r>   -15.1957     0.0000   192.0000 </r>
       <r>   -15.0194     0.0000   192.0000 </r>
       <r>   -14.8431     0.0000   192.0000 </r>
       <r>   -14.6668     0.0000   192.0000 </r>
       <r>   -14.4905     0.0000   192.0000 </r>
       <r>   -14.3142     0.0000   192.0000 </r>
       <r>   -14.1379     0.0000   192.0000 </r>
       <r>   -13.9616     0.0000   192.0000 </r>
       <r>   -13.7853     0.0000   192.0000 </r>
       <r>   -13.6090     0.0000   192.0000 </r>
       <r>   -13.4327     0.0000   192.0000 </r>
       <r>   -13.2564     0.0000   192.0000 </r>
       <r>   -13.0801     0.0000   192.0000 </r>
       <r>   -12.9038     0.0000   192.0000 </r>
       <r>   -12.7275     0.0000   192.0000 </r>
       <r>   -12.5512     0.0000   192.0000 </r>
       <r>   -12.3749     0.0000   192.0000 </r>
       <r>   -12.1986     0.0000   192.0000 </r>
       <r>   -12.0223     0.0000   192.0000 </r>
       <r>   -11.8460     0.0000   192.0000 </r>
       <r>   -11.6697     0.0000   192.0000 </r>
       <r>   -11.4934     0.0000   192.0000 </r>
       <r>   -11.3171     0.0000   192.0000 </r>
       <r>   -11.1408     0.0000   192.0000 </r>
       <r>   -10.9645     0.0000   192.0000 </r>
       <r>   -10.7882     0.0000   192.0000 </r>
       <r>   -10.6119     0.0000   192.0000 </r>
       <r>   -10.4356     0.0000   192.0000 </r>
       <r>   -10.2593     0.0000   192.0000 </r>
       <r>   -10.0830     0.0000   192.0000 </r>
       <r>    -9.9068     0.0000   192.0000 </r>
       <r>    -9.7305     0.0000   192.0000 </r>
       <r>    -9.5542     0.0000   192.0000 </r>
       <r>    -9.3779     0.0000   192.0000 </r>
       <r>    -9.2016     0.0000   192.0000 </r>
       <r>    -9.0253     0.0000   192.2500 </r>
       <r>    -8.8490     0.0000   193.7500 </r>
       <r>    -8.6727     0.0000   196.7500 </r>
       <r>    -8.4964     0.0000   198.7500 </r>
       <r>    -8.3201     0.0000   200.2500 </r>
       <r>    -8.1438     1.1899   206.4598 </r>
       <r>    -7.9675     0.0000   212.2500 </r>
       <r>    -7.7912    39.3906   222.1945 </r>
       <r>    -7.6149    68.8776   235.8929 </r>
       <r>    -7.4386     8.7357   247.7901 </r>
       <r>    -7.2623     0.0000   256.0000 </r>
       <r>    -7.0860     0.0000   256.0000 </r>
       <r>    -6.9097     0.0000   256.0000 </r>
       <r>    -6.7334     0.0000   256.0000 </r>
       <r>    -6.5571     0.0000   256.0000 </r>
       <r>    -6.3808     0.0000   256.0000 </r>
       <r>    -6.2045     0.0000   256.0000 </r>
       <r>    -6.0282     0.0000   256.0000 </r>
       <r>    -5.8519     0.0000   256.0000 </r>
       <r>    -5.6756     0.0000   256.0000 </r>
       <r>    -5.4993     0.0000   256.0000 </r>
       <r>    -5.3230     0.0000   256.0000 </r>
       <r>    -5.1467     0.0000   256.0000 </r>
       <r>    -4.9704     0.0000   256.0000 </r>
       <r>    -4.7941     0.0000   256.0000 </r>
       <r>    -4.6178     0.0000   256.0000 </r>
       <r>    -4.4415     0.0000   256.0000 </r>
       <r>    -4.2652     0.0000   256.0000 </r>
       <r>    -4.0889     0.0000   256.0000 </r>
       <r>    -3.9126     0.0000   256.0000 </r>
       <r>    -3.7363     0.0000   256.0000 </r>
       <r>    -3.5600     0.0000   256.0000 </r>
       <r>    -3.3837     0.0000   256.0000 </r>
       <r>    -3.2074     0.0000   256.0000 </r>
       <r>    -3.0311     0.0000   256.0000 </r>
       <r>    -2.8549     0.0000   256.0000 </r>
       <r>    -2.6786     0.0000   256.0000 </r>
       <r>    -2.5023     0.0000   256.0000 </r>
       <r>    -2.3260     0.0000   256.0000 </r>
       <r>    -2.1497     0.0000   256.0000 </r>
       <r>    -1.9734     0.0000   256.0000 </r>
       <r>    -1.7971     0.0000   256.0000 </r>
       <r>    -1.6208     0.0000   256.0000 </r>
       <r>    -1.4445     0.0000   256.0000 </r>
       <r>    -1.2682     0.0000   257.0000 </r>
       <r>    -1.0919     0.0000   257.0000 </r>
       <r>    -0.9156    34.0203   262.9977 </r>
       <r>    -0.7393     0.6119   269.1079 </r>
       <r>    -0.5630    27.2167   274.5482 </r>
       <r>    -0.3867     0.0000   278.7500 </r>
       <r>    -0.2104   133.7426   302.3285 </r>
       <r>    -0.0341     0.0000   304.2500 </r>
       <r>     0.1422     0.0000   304.2500 </r>
       <r>     0.3185    33.5255   310.1605 </r>
       <r>     0.4948    52.3085   319.4719 </r>
       <r>     0.6711     0.0000   322.2500 </r>
       <r>     0.8474     0.0000   324.2500 </r>
       <r>     1.0237     8.5083   325.7500 </r>
       <r>     1.2000    25.5244   330.2499 </r>
       <r>     1.3763    55.5697   343.0468 </r>
       <r>     1.5526    34.0334   354.2500 </r>
       <r>     1.7289     0.0000   357.2500 </r>
       <r>     1.9052     8.5083   358.7500 </r>
       <r>     2.0815    51.1921   373.7750 </r>
       <r>     2.2578    48.2140   388.7500 </r>
       <r>     2.4341    34.0334   400.7500 </r>
       <r>     2.6104    25.5291   405.2507 </r>
       <r>     2.7867    33.9595   417.2370 </r>
       <r>     2.9630    81.8670   435.1829 </r>
       <r>     3.1393     0.0000   437.2500 </r>
       <r>     3.3156    39.7056   444.2500 </r>
       <r>     3.4919    16.9105   447.2313 </r>
       <r>     3.6682     0.0000   448.0000 </r>
       <r>     3.8445     0.0000   448.0000 </r>
       <r>     4.0208     0.0000   448.0000 </r>
       <r>     4.1970     0.0000   448.0000 </r>
       <r>     4.3733     0.0000   448.0000 </r>
       <r>     4.5496     0.0000   448.0000 </r>
       <r>     4.7259     0.0000   448.0000 </r>
       <r>     4.9022     0.0000   448.0000 </r>
       <r>     5.0785     0.0000   448.0000 </r>
       <r>     5.2548     0.0000   448.0000 </r>
       <r>     5.4311     0.0000   448.0000 </r>
       <r>     5.6074     0.0000   448.0000 </r>
       <r>     5.7837     0.0000   448.0000 </r>
       <r>     5.9600     0.0000   448.0000 </r>
       <r>     6.1363     0.0000   448.0000 </r>
       <r>     6.3126     0.3006   448.0530 </r>
       <r>     6.4889     0.0000   448.7500 </r>
       <r>     6.6652     0.0000   448.7500 </r>
       <r>     6.8415     0.0000   448.7500 </r>
       <r>     7.0178     8.5083   450.2500 </r>
       <r>     7.1941     0.0000   450.2500 </r>
       <r>     7.3704    15.1407   453.1693 </r>
       <r>     7.5467     0.0000   456.5000 </r>
       <r>     7.7230     0.0000   456.5000 </r>
       <r>     7.8993     3.2116   457.8162 </r>
       <r>     8.0756     5.6722   470.2500 </r>
       <r>     8.2519     0.0000   471.7500 </r>
       <r>     8.4282     0.0820   471.7645 </r>
       <r>     8.6045     8.5082   476.7500 </r>
       <r>     8.7808    20.9994   480.4521 </r>
       <r>     8.9571    32.0752   501.9048 </r>
       <r>     9.1334    30.7562   509.1722 </r>
       <r>     9.3097     0.0000   518.7500 </r>
       <r>     9.4860     0.0000   524.7500 </r>
       <r>     9.6623    17.0167   527.7500 </r>
       <r>     9.8386     0.0000   527.7500 </r>
       <r>    10.0149    25.5250   532.2500 </r>
       <r>    10.1912     0.0000   532.2500 </r>
       <r>    10.3675     0.0000   535.2500 </r>
       <r>    10.5438     0.0000   536.0000 </r>
       <r>    10.7201     0.0000   536.0000 </r>
       <r>    10.8964     0.0000   536.0000 </r>
       <r>    11.0726     0.0000   536.0000 </r>
       <r>    11.2489     0.0000   536.0000 </r>
       <r>    11.4252     0.0000   536.0000 </r>
       <r>    11.6015     0.0000   536.0000 </r>
       <r>    11.7778     0.0000   536.0000 </r>
       <r>    11.9541     0.0000   536.0000 </r>
       <r>    12.1304     0.0000   536.0000 </r>
       <r>    12.3067     0.0000   536.0000 </r>
       <r>    12.4830     0.0000   536.0000 </r>
       <r>    12.6593     0.0000   536.0000 </r>
       <r>    12.8356     0.0000   536.0000 </r>
      </set>
     </set>
    </array>
   </total>
  </dos>
 </calculation>
 <structure name="finalpos" >
  <crystal>
   <varray name="basis" >
    <v>      10.36194566       0.00000000       0.00000000 </v>
    <v>       0.00000000      10.36194566       0.00000000 </v>
    <v>       0.00000000       0.00000000      10.36194566 </v>
   </varray>
   <i name="volume">   1112.56125439 </i>
   <varray name="rec_basis" >
    <v>       0.09650697       0.00000000       0.00000000 </v>
    <v>       0.00000000       0.09650697       0.00000000 </v>
    <v>       0.00000000       0.00000000       0.09650697 </v>
   </varray>
  </crystal>
  <varray name="positions" >
   <v>       0.00000000       0.00000000       0.00000000 </v>
   <v>       0.50000000       0.00000000       0.00000000 </v>
   <v>       0.00000000       0.50000000       0.00000000 </v>
   <v>       0.50000000       0.50000000       0.00000000 </v>
   <v>       0.00000000       0.00000000       0.50000000 </v>
   <v>       0.50000000       0.00000000       0.50000000 </v>
   <v>       0.00000000       0.50000000       0.50000000 </v>
   <v>       0.50000000       0.50000000       0.50000000 </v>
   <v>       0.00000000       0.25000000       0.25000000 </v>
   <v>       0.50000000       0.25000000       0.25000000 </v>
   <v>       0.00000000       0.75000000       0.25000000 </v>
   <v>       0.50000000       0.75000000       0.25000000 </v>
   <v>       0.00000000       0.25000000       0.75000000 </v>
   <v>       0.50000000       0.25000000       0.75000000 </v>
   <v>       0.00000000       0.75000000       0.75000000 </v>
   <v>       0.50000000       0.75000000       0.75000000 </v>
   <v>       0.25000000       0.00000000       0.25000000 </v>
   <v>       0.75000000       0.00000000       0.25000000 </v>
   <v>       0.25000000       0.50000000       0.25000000 </v>
   <v>       0.75000000       0.50000000       0.25000000 </v>
   <v>       0.25000000       0.00000000       0.75000000 </v>
   <v>       0.75000000       0.00000000       0.75000000 </v>
   <v>       0.25000000       0.50000000       0.75000000 </v>
   <v>       0.75000000       0.50000000       0.75000000 </v>
   <v>       0.25000000       0.25000000       0.00000000 </v>
   <v>       0.75000000       0.25000000       0.00000000 </v>
   <v>       0.25000000       0.75000000       0.00000000 </v>
   <v>       0.75000000       0.75000000       0.00000000 </v>
   <v>       0.25000000       0.25000000       0.50000000 </v>
   <v>       0.75000000       0.25000000       0.50000000 </v>
   <v>       0.25000000       0.75000000       0.50000000 </v>
   <v>       0.75000000       0.75000000       0.50000000 </v>
   <v>       0.25096507       0.00000000       0.00000000 </v>
   <v>       0.75000000       0.00000000       0.00000000 </v>
   <v>       0.25000000       0.50000000       0.00000000 </v>
   <v>       0.75000000       0.50000000       0.00000000 </v>
   <v>       0.25000000       0.00000000       0.50000000 </v>
   <v>       0.75000000       0.00000000       0.50000000 </v>
   <v>       0.25000000       0.50000000       0.50000000 </v>
   <v>       0.75000000       0.50000000       0.50000000 </v>
   <v>       0.25000000       0.25000000       0.25000000 </v>
   <v>       0.75000000       0.25000000       0.25000000 </v>
   <v>       0.25000000       0.75000000       0.25000000 </v>
   <v>       0.75000000       0.75000000       0.25000000 </v>
   <v>       0.25000000       0.25000000       0.75000000 </v>
   <v>       0.75000000       0.25000000       0.75000000 </v>
   <v>       0.25000000       0.75000000       0.75000000 </v>
   <v>       0.75000000       0.75000000       0.75000000 </v>
   <v>       0.00000000       0.00000000       0.25000000 </v>
   <v>       0.50000000       0.00000000       0.25000000 </v>
   <v>       0.00000000       0.50000000       0.25000000 </v>
   <v>       0.50000000       0.50000000       0.25000000 </v>
   <v>       0.00000000       0.00000000       0.75000000 </v>
   <v>       0.50000000       0.00000000       0.75000000 </v>
   <v>       0.00000000       0.50000000       0.75000000 </v>
   <v>       0.50000000       0.50000000       0.75000000 </v>
   <v>       0.00000000       0.25000000       0.00000000 </v>
   <v>       0.50000000       0.25000000       0.00000000 </v>
   <v>       0.00000000       0.75000000       0.00000000 </v>
   <v>       0.50000000       0.75000000       0.00000000 </v>
   <v>       0.00000000       0.25000000       0.50000000 </v>
   <v>       0.50000000       0.25000000       0.50000000 </v>
   <v>       0.00000000       0.75000000       0.50000000 </v>
   <v>       0.50000000       0.75000000       0.50000000 </v>
  </varray>
 </structure>
</modeling>
