  64  64   0   0
  0.1720993E+02  0.1032729E-08  0.1032729E-08  0.1032729E-08  0.5000000E-15
  1.000000000000000E-004
  CAR 
 unknown system                          
     12.93534967    -39.93759694  301      3.81476638      1.00000000
    -39.938  0.0000E+00  0.0000E+00
    -39.761  0.0000E+00  0.0000E+00
    -39.585  0.0000E+00  0.0000E+00
    -39.409  0.0000E+00  0.0000E+00
    -39.233  0.0000E+00  0.0000E+00
    -39.056  0.0000E+00  0.0000E+00
    -38.880  0.0000E+00  0.0000E+00
    -38.704  0.0000E+00  0.0000E+00
    -38.528  0.0000E+00  0.0000E+00
    -38.351  0.0000E+00  0.0000E+00
    -38.175  0.0000E+00  0.0000E+00
    -37.999  0.0000E+00  0.0000E+00
    -37.823  0.0000E+00  0.0000E+00
    -37.646  0.0000E+00  0.0000E+00
    -37.470  0.1089E+04  0.1920E+03
    -37.294  0.0000E+00  0.1920E+03
    -37.118  0.0000E+00  0.1920E+03
    -36.941  0.0000E+00  0.1920E+03
    -36.765  0.0000E+00  0.1920E+03
    -36.589  0.0000E+00  0.1920E+03
    -36.413  0.0000E+00  0.1920E+03
    -36.236  0.0000E+00  0.1920E+03
    -36.060  0.0000E+00  0.1920E+03
    -35.884  0.0000E+00  0.1920E+03
    -35.708  0.0000E+00  0.1920E+03
    -35.532  0.0000E+00  0.1920E+03
    -35.355  0.0000E+00  0.1920E+03
    -35.179  0.0000E+00  0.1920E+03
    -35.003  0.0000E+00  0.1920E+03
    -34.827  0.0000E+00  0.1920E+03
    -34.650  0.0000E+00  0.1920E+03
    -34.474  0.0000E+00  0.1920E+03
    -34.298  0.0000E+00  0.1920E+03
    -34.122  0.0000E+00  0.1920E+03
    -33.945  0.0000E+00  0.1920E+03
    -33.769  0.0000E+00  0.1920E+03
    -33.593  0.0000E+00  0.1920E+03
    -33.417  0.0000E+00  0.1920E+03
    -33.240  0.0000E+00  0.1920E+03
    -33.064  0.0000E+00  0.1920E+03
    -32.888  0.0000E+00  0.1920E+03
    -32.712  0.0000E+00  0.1920E+03
    -32.535  0.0000E+00  0.1920E+03
    -32.359  0.0000E+00  0.1920E+03
    -32.183  0.0000E+00  0.1920E+03
    -32.007  0.0000E+00  0.1920E+03
    -31.830  0.0000E+00  0.1920E+03
    -31.654  0.0000E+00  0.1920E+03
    -31.478  0.0000E+00  0.1920E+03
    -31.302  0.0000E+00  0.1920E+03
    -31.125  0.0000E+00  0.1920E+03
    -30.949  0.0000E+00  0.1920E+03
    -30.773  0.0000E+00  0.1920E+03
    -30.597  0.0000E+00  0.1920E+03
    -30.420  0.0000E+00  0.1920E+03
    -30.244  0.0000E+00  0.1920E+03
    -30.068  0.0000E+00  0.1920E+03
    -29.892  0.0000E+00  0.1920E+03
    -29.715  0.0000E+00  0.1920E+03
    -29.539  0.0000E+00  0.1920E+03
    -29.363  0.0000E+00  0.1920E+03
    -29.187  0.0000E+00  0.1920E+03
    -29.011  0.0000E+00  0.1920E+03
    -28.834  0.0000E+00  0.1920E+03
    -28.658  0.0000E+00  0.1920E+03
    -28.482  0.0000E+00  0.1920E+03
    -28.306  0.0000E+00  0.1920E+03
    -28.129  0.0000E+00  0.1920E+03
    -27.953  0.0000E+00  0.1920E+03
    -27.777  0.0000E+00  0.1920E+03
    -27.601  0.0000E+00  0.1920E+03
    -27.424  0.0000E+00  0.1920E+03
    -27.248  0.0000E+00  0.1920E+03
    -27.072  0.0000E+00  0.1920E+03
    -26.896  0.0000E+00  0.1920E+03
    -26.719  0.0000E+00  0.1920E+03
    -26.543  0.0000E+00  0.1920E+03
    -26.367  0.0000E+00  0.1920E+03
    -26.191  0.0000E+00  0.1920E+03
    -26.014  0.0000E+00  0.1920E+03
    -25.838  0.0000E+00  0.1920E+03
    -25.662  0.0000E+00  0.1920E+03
    -25.486  0.0000E+00  0.1920E+03
    -25.309  0.0000E+00  0.1920E+03
    -25.133  0.0000E+00  0.1920E+03
    -24.957  0.0000E+00  0.1920E+03
    -24.781  0.0000E+00  0.1920E+03
    -24.604  0.0000E+00  0.1920E+03
    -24.428  0.0000E+00  0.1920E+03
    -24.252  0.0000E+00  0.1920E+03
    -24.076  0.0000E+00  0.1920E+03
    -23.899  0.0000E+00  0.1920E+03
    -23.723  0.0000E+00  0.1920E+03
    -23.547  0.0000E+00  0.1920E+03
    -23.371  0.0000E+00  0.1920E+03
    -23.194  0.0000E+00  0.1920E+03
    -23.018  0.0000E+00  0.1920E+03
    -22.842  0.0000E+00  0.1920E+03
    -22.666  0.0000E+00  0.1920E+03
    -22.490  0.0000E+00  0.1920E+03
    -22.313  0.0000E+00  0.1920E+03
    -22.137  0.0000E+00  0.1920E+03
    -21.961  0.0000E+00  0.1920E+03
    -21.785  0.0000E+00  0.1920E+03
    -21.608  0.0000E+00  0.1920E+03
    -21.432  0.0000E+00  0.1920E+03
    -21.256  0.0000E+00  0.1920E+03
    -21.080  0.0000E+00  0.1920E+03
    -20.903  0.0000E+00  0.1920E+03
    -20.727  0.0000E+00  0.1920E+03
    -20.551  0.0000E+00  0.1920E+03
    -20.375  0.0000E+00  0.1920E+03
    -20.198  0.0000E+00  0.1920E+03
    -20.022  0.0000E+00  0.1920E+03
    -19.846  0.0000E+00  0.1920E+03
    -19.670  0.0000E+00  0.1920E+03
    -19.493  0.0000E+00  0.1920E+03
    -19.317  0.0000E+00  0.1920E+03
    -19.141  0.0000E+00  0.1920E+03
    -18.965  0.0000E+00  0.1920E+03
    -18.788  0.0000E+00  0.1920E+03
    -18.612  0.0000E+00  0.1920E+03
    -18.436  0.0000E+00  0.1920E+03
    -18.260  0.0000E+00  0.1920E+03
    -18.083  0.0000E+00  0.1920E+03
    -17.907  0.0000E+00  0.1920E+03
    -17.731  0.0000E+00  0.1920E+03
    -17.555  0.0000E+00  0.1920E+03
    -17.378  0.0000E+00  0.1920E+03
    -17.202  0.0000E+00  0.1920E+03
    -17.026  0.0000E+00  0.1920E+03
    -16.850  0.0000E+00  0.1920E+03
    -16.674  0.0000E+00  0.1920E+03
    -16.497  0.0000E+00  0.1920E+03
    -16.321  0.0000E+00  0.1920E+03
    -16.145  0.0000E+00  0.1920E+03
    -15.969  0.0000E+00  0.1920E+03
    -15.792  0.0000E+00  0.1920E+03
    -15.616  0.0000E+00  0.1920E+03
    -15.440  0.0000E+00  0.1920E+03
    -15.264  0.0000E+00  0.1920E+03
    -15.087  0.0000E+00  0.1920E+03
    -14.911  0.0000E+00  0.1920E+03
    -14.735  0.0000E+00  0.1920E+03
    -14.559  0.0000E+00  0.1920E+03
    -14.382  0.0000E+00  0.1920E+03
    -14.206  0.0000E+00  0.1920E+03
    -14.030  0.0000E+00  0.1920E+03
    -13.854  0.0000E+00  0.1920E+03
    -13.677  0.0000E+00  0.1920E+03
    -13.501  0.0000E+00  0.1920E+03
    -13.325  0.0000E+00  0.1920E+03
    -13.149  0.0000E+00  0.1920E+03
    -12.972  0.0000E+00  0.1920E+03
    -12.796  0.0000E+00  0.1920E+03
    -12.620  0.0000E+00  0.1920E+03
    -12.444  0.0000E+00  0.1920E+03
    -12.267  0.0000E+00  0.1920E+03
    -12.091  0.0000E+00  0.1920E+03
    -11.915  0.0000E+00  0.1920E+03
    -11.739  0.0000E+00  0.1920E+03
    -11.562  0.0000E+00  0.1920E+03
    -11.386  0.0000E+00  0.1920E+03
    -11.210  0.0000E+00  0.1920E+03
    -11.034  0.0000E+00  0.1920E+03
    -10.857  0.0000E+00  0.1920E+03
    -10.681  0.0000E+00  0.1920E+03
    -10.505  0.0000E+00  0.1920E+03
    -10.329  0.0000E+00  0.1920E+03
    -10.153  0.0000E+00  0.1920E+03
     -9.976  0.0000E+00  0.1920E+03
     -9.800  0.0000E+00  0.1920E+03
     -9.624  0.0000E+00  0.1920E+03
     -9.448  0.0000E+00  0.1920E+03
     -9.271  0.0000E+00  0.1920E+03
     -9.095  0.1418E+01  0.1922E+03
     -8.919  0.8126E+01  0.1937E+03
     -8.743  0.1140E+01  0.1940E+03
     -8.566  0.1039E+00  0.1968E+03
     -8.390  0.1567E-02  0.1988E+03
     -8.214  0.9865E+01  0.2020E+03
     -8.038  0.3404E+02  0.2122E+03
     -7.861  0.3744E-03  0.2123E+03
     -7.685  0.1149E+02  0.2233E+03
     -7.509  0.6809E+02  0.2417E+03
     -7.333  0.3034E+02  0.2531E+03
     -7.156  0.0000E+00  0.2560E+03
     -6.980  0.0000E+00  0.2560E+03
     -6.804  0.0000E+00  0.2560E+03
     -6.628  0.0000E+00  0.2560E+03
     -6.451  0.0000E+00  0.2560E+03
     -6.275  0.0000E+00  0.2560E+03
     -6.099  0.0000E+00  0.2560E+03
     -5.923  0.0000E+00  0.2560E+03
     -5.746  0.0000E+00  0.2560E+03
     -5.570  0.0000E+00  0.2560E+03
     -5.394  0.0000E+00  0.2560E+03
     -5.218  0.0000E+00  0.2560E+03
     -5.041  0.0000E+00  0.2560E+03
     -4.865  0.0000E+00  0.2560E+03
     -4.689  0.0000E+00  0.2560E+03
     -4.513  0.0000E+00  0.2560E+03
     -4.336  0.0000E+00  0.2560E+03
     -4.160  0.0000E+00  0.2560E+03
     -3.984  0.0000E+00  0.2560E+03
     -3.808  0.0000E+00  0.2560E+03
     -3.632  0.0000E+00  0.2560E+03
     -3.455  0.0000E+00  0.2560E+03
     -3.279  0.0000E+00  0.2560E+03
     -3.103  0.0000E+00  0.2560E+03
     -2.927  0.0000E+00  0.2560E+03
     -2.750  0.0000E+00  0.2560E+03
     -2.574  0.0000E+00  0.2560E+03
     -2.398  0.0000E+00  0.2560E+03
     -2.222  0.0000E+00  0.2560E+03
     -2.045  0.0000E+00  0.2560E+03
     -1.869  0.0000E+00  0.2560E+03
     -1.693  0.0000E+00  0.2560E+03
     -1.517  0.0000E+00  0.2560E+03
     -1.340  0.3533E+01  0.2566E+03
     -1.164  0.0000E+00  0.2570E+03
     -0.988  0.0000E+00  0.2570E+03
     -0.812  0.2838E+01  0.2635E+03
     -0.635  0.4255E+01  0.2698E+03
     -0.459  0.3406E+02  0.2758E+03
     -0.283  0.1045E-11  0.2788E+03
     -0.107  0.6809E+02  0.3042E+03
      0.070  0.0000E+00  0.3042E+03
      0.246  0.1293E-11  0.3043E+03
      0.422  0.1702E+02  0.3102E+03
      0.598  0.3404E+02  0.3222E+03
      0.775  0.8241E+01  0.3237E+03
      0.951  0.0000E+00  0.3242E+03
      1.127  0.0000E+00  0.3258E+03
      1.303  0.1744E+02  0.3303E+03
      1.480  0.3404E+02  0.3452E+03
      1.656  0.6659E+00  0.3544E+03
      1.832  0.0000E+00  0.3572E+03
      2.008  0.1169E+02  0.3608E+03
      2.185  0.8511E+02  0.3797E+03
      2.361  0.2171E-10  0.3888E+03
      2.537  0.3404E+02  0.4008E+03
      2.713  0.4988E+02  0.4095E+03
      2.889  0.3404E+02  0.4173E+03
      3.066  0.6230E+02  0.4372E+03
      3.242  0.0000E+00  0.4372E+03
      3.418  0.0000E+00  0.4442E+03
      3.594  0.1702E+02  0.4472E+03
      3.771  0.0000E+00  0.4480E+03
      3.947  0.0000E+00  0.4480E+03
      4.123  0.0000E+00  0.4480E+03
      4.299  0.0000E+00  0.4480E+03
      4.476  0.0000E+00  0.4480E+03
      4.652  0.0000E+00  0.4480E+03
      4.828  0.0000E+00  0.4480E+03
      5.004  0.0000E+00  0.4480E+03
      5.181  0.0000E+00  0.4480E+03
      5.357  0.0000E+00  0.4480E+03
      5.533  0.0000E+00  0.4480E+03
      5.709  0.0000E+00  0.4480E+03
      5.886  0.0000E+00  0.4480E+03
      6.062  0.0000E+00  0.4480E+03
      6.238  0.0000E+00  0.4480E+03
      6.414  0.2075E-01  0.4480E+03
      6.591  0.0000E+00  0.4488E+03
      6.767  0.0000E+00  0.4488E+03
      6.943  0.0000E+00  0.4488E+03
      7.119  0.8511E+01  0.4502E+03
      7.296  0.0000E+00  0.4502E+03
      7.472  0.4661E+01  0.4511E+03
      7.648  0.0000E+00  0.4565E+03
      7.824  0.2963E-02  0.4565E+03
      8.001  0.6792E-02  0.4573E+03
      8.177  0.1320E+02  0.4716E+03
      8.353  0.0000E+00  0.4718E+03
      8.529  0.7874E-16  0.4718E+03
      8.706  0.5161E+01  0.4762E+03
      8.882  0.4665E+01  0.4776E+03
      9.058  0.2553E+02  0.4993E+03
      9.234  0.1311E+02  0.5061E+03
      9.410  0.0000E+00  0.5188E+03
      9.587  0.3404E+02  0.5248E+03
      9.763  0.1702E+02  0.5277E+03
      9.939  0.0000E+00  0.5278E+03
     10.115  0.8511E+01  0.5322E+03
     10.292  0.0000E+00  0.5322E+03
     10.468  0.0000E+00  0.5352E+03
     10.644  0.0000E+00  0.5360E+03
     10.820  0.0000E+00  0.5360E+03
     10.997  0.0000E+00  0.5360E+03
     11.173  0.0000E+00  0.5360E+03
     11.349  0.0000E+00  0.5360E+03
     11.525  0.0000E+00  0.5360E+03
     11.702  0.0000E+00  0.5360E+03
     11.878  0.0000E+00  0.5360E+03
     12.054  0.0000E+00  0.5360E+03
     12.230  0.0000E+00  0.5360E+03
     12.407  0.0000E+00  0.5360E+03
     12.583  0.0000E+00  0.5360E+03
     12.759  0.0000E+00  0.5360E+03
     12.935  0.0000E+00  0.5360E+03
