<?xml version="1.0" encoding="ISO-8859-1"?>
<modeling>
 <generator>
  <i name="program" type="string">vasp </i>
  <i name="version" type="string">5.3.5  </i>
  <i name="subversion" type="string">31Mar14 (build Nov 07 2014 11:36:17) complex                          parallel </i>
  <i name="platform" type="string">LinuxIFC </i>
  <i name="date" type="string">2015 10 15 </i>
  <i name="time" type="string">02:19:51 </i>
 </generator>
 <incar>
  <i type="string" name="PREC">accurate</i>
  <i type="int" name="IALGO">    38</i>
  <i type="logical" name="ADDGRID"> T  </i>
  <i type="int" name="NELMIN">     5</i>
  <i type="int" name="IBRION">    -1</i>
  <i name="EDIFF">      0.00000001</i>
  <i name="ENCUT">    525.10770000</i>
  <i type="logical" name="LREAL"> F  </i>
  <i type="int" name="ISMEAR">     0</i>
  <i name="SIGMA">      0.01000000</i>
  <i type="logical" name="LWAVE"> F  </i>
  <i type="logical" name="LCHARG"> F  </i>
  <i type="string" name="GGA"> PS</i>
 </incar>
 <kpoints>
  <generation param="Gamma">
   <v type="int" name="divisions">       2        2        2 </v>
   <v name="usershift">      0.00000000       0.00000000       0.00000000 </v>
   <v name="genvec1">      0.50000000       0.00000000       0.00000000 </v>
   <v name="genvec2">      0.00000000       0.50000000       0.00000000 </v>
   <v name="genvec3">      0.00000000       0.00000000       0.50000000 </v>
   <v name="shift">      0.00000000       0.00000000       0.00000000 </v>
  </generation>
  <varray name="kpointlist" >
   <v>       0.00000000       0.00000000       0.00000000 </v>
   <v>       0.50000000       0.00000000       0.00000000 </v>
   <v>       0.00000000       0.50000000       0.00000000 </v>
   <v>       0.50000000       0.50000000       0.00000000 </v>
   <v>       0.00000000       0.50000000       0.50000000 </v>
   <v>       0.50000000       0.50000000       0.50000000 </v>
  </varray>
  <varray name="weights" >
   <v>       0.12500000 </v>
   <v>       0.12500000 </v>
   <v>       0.25000000 </v>
   <v>       0.25000000 </v>
   <v>       0.12500000 </v>
   <v>       0.12500000 </v>
  </varray>
 </kpoints>
 <parameters>
  <separator name="general" >
   <i type="string" name="SYSTEM">unknown system</i>
   <i type="logical" name="LCOMPAT"> F  </i>
  </separator>
  <separator name="electronic" >
   <i type="string" name="PREC">accura</i>
   <i name="ENMAX">    525.10770000</i>
   <i name="ENAUG">    758.78000000</i>
   <i name="EDIFF">      0.00000001</i>
   <i type="int" name="IALGO">    38</i>
   <i type="int" name="IWAVPR">    10</i>
   <i type="int" name="NBANDS">   268</i>
   <i name="NELECT">    448.00000000</i>
   <i type="int" name="TURBO">     0</i>
   <i type="int" name="IRESTART">     0</i>
   <i type="int" name="NREBOOT">     0</i>
   <i type="int" name="NMIN">     0</i>
   <i name="EREF">      0.00000000</i>
   <separator name="electronic smearing" >
    <i type="int" name="ISMEAR">     0</i>
    <i name="SIGMA">      0.01000000</i>
    <i name="KSPACING">      0.50000000</i>
    <i type="logical" name="KGAMMA"> T  </i>
   </separator>
   <separator name="electronic projectors" >
    <i type="logical" name="LREAL"> F  </i>
    <v name="ROPT">      0.00000000      0.00000000</v>
    <i type="int" name="LMAXPAW">  -100</i>
    <i type="int" name="LMAXMIX">     2</i>
    <i type="logical" name="NLSPLINE"> F  </i>
   </separator>
   <separator name="electronic startup" >
    <i type="int" name="ISTART">     0</i>
    <i type="int" name="ICHARG">     2</i>
    <i type="int" name="INIWAV">     1</i>
   </separator>
   <separator name="electronic spin" >
    <i type="int" name="ISPIN">     1</i>
    <i type="logical" name="LNONCOLLINEAR"> F  </i>
    <v name="MAGMOM">      1.00000000      1.00000000      1.00000000      1.00000000      1.00000000      1.00000000      1.00000000      1.00000000      1.00000000      1.00000000      1.00000000      1.00000000      1.00000000      1.00000000      1.00000000      1.00000000      1.00000000      1.00000000      1.00000000      1.00000000
      1.00000000      1.00000000      1.00000000      1.00000000      1.00000000      1.00000000      1.00000000      1.00000000      1.00000000      1.00000000      1.00000000      1.00000000      1.00000000      1.00000000      1.00000000      1.00000000      1.00000000      1.00000000      1.00000000      1.00000000
      1.00000000      1.00000000      1.00000000      1.00000000      1.00000000      1.00000000      1.00000000      1.00000000      1.00000000      1.00000000      1.00000000      1.00000000      1.00000000      1.00000000      1.00000000      1.00000000      1.00000000      1.00000000      1.00000000      1.00000000
      1.00000000      1.00000000      1.00000000      1.00000000</v>
    <i name="NUPDOWN">     -1.00000000</i>
    <i type="logical" name="LSORBIT"> F  </i>
    <v name="SAXIS">      0.00000000      0.00000000      1.00000000</v>
    <i type="logical" name="LSPIRAL"> F  </i>
    <v name="QSPIRAL">      0.00000000      0.00000000      0.00000000</v>
    <i type="logical" name="LZEROZ"> F  </i>
   </separator>
   <separator name="electronic exchange-correlation" >
    <i type="logical" name="LASPH"> F  </i>
    <i type="logical" name="LMETAGGA"> F  </i>
   </separator>
   <separator name="electronic convergence" >
    <i type="int" name="NELM">    60</i>
    <i type="int" name="NELMDL">    -5</i>
    <i type="int" name="NELMIN">     5</i>
    <i name="ENINI">    525.10770000</i>
    <separator name="electronic convergence detail" >
     <i type="logical" name="LDIAG"> T  </i>
     <i type="logical" name="LSUBROT"> F  </i>
     <i name="WEIMIN">      0.00000000</i>
     <i name="EBREAK">      0.00000000</i>
     <i name="DEPER">      0.30000000</i>
     <i type="int" name="NRMM">     4</i>
     <i name="TIME">      0.40000000</i>
    </separator>
   </separator>
   <separator name="electronic mixer" >
    <i name="AMIX">      0.40000000</i>
    <i name="BMIX">      1.00000000</i>
    <i name="AMIN">      0.10000000</i>
    <i name="AMIX_MAG">      1.60000000</i>
    <i name="BMIX_MAG">      1.00000000</i>
    <separator name="electronic mixer details" >
     <i type="int" name="IMIX">     4</i>
     <i type="int" name="MAXMIX">   -45</i>
     <i name="WC">    100.00000000</i>
     <i type="int" name="INIMIX">     1</i>
     <i type="int" name="MIXPRE">     1</i>
     <i type="int" name="MREMOVE">     5</i>
    </separator>
   </separator>
   <separator name="electronic dipolcorrection" >
    <i type="logical" name="LDIPOL"> F  </i>
    <i type="logical" name="LMONO"> F  </i>
    <i type="int" name="IDIPOL">     0</i>
    <i name="EPSILON">      1.00000000</i>
    <v name="DIPOL">   -100.00000000   -100.00000000   -100.00000000</v>
    <i name="EFIELD">      0.00000000</i>
   </separator>
  </separator>
  <separator name="grids" >
   <i type="int" name="NGX">    80</i>
   <i type="int" name="NGY">    80</i>
   <i type="int" name="NGZ">    80</i>
   <i type="int" name="NGXF">   160</i>
   <i type="int" name="NGYF">   160</i>
   <i type="int" name="NGZF">   160</i>
   <i type="logical" name="ADDGRID"> T  </i>
  </separator>
  <separator name="ionic" >
   <i type="int" name="NSW">     0</i>
   <i type="int" name="IBRION">    -1</i>
   <i type="int" name="ISIF">     2</i>
   <i name="PSTRESS">      0.00000000</i>
   <i name="EDIFFG">      0.00000010</i>
   <i type="int" name="NFREE">     0</i>
   <i name="POTIM">      0.50000000</i>
   <i name="SMASS">     -3.00000000</i>
   <i name="SCALEE">      1.00000000</i>
  </separator>
  <separator name="ionic md" >
   <i name="TEBEG">      0.00010000</i>
   <i name="TEEND">      0.00010000</i>
   <i type="int" name="NBLOCK">     1</i>
   <i type="int" name="KBLOCK">     1</i>
   <i type="int" name="NPACO">   256</i>
   <i name="APACO">     16.00000000</i>
  </separator>
  <separator name="symmetry" >
   <i type="int" name="ISYM">     2</i>
   <i name="SYMPREC">      0.00001000</i>
  </separator>
  <separator name="dos" >
   <i type="logical" name="LORBIT"> F  </i>
   <v name="RWIGS">     -1.00000000     -1.00000000</v>
   <i type="int" name="NEDOS">   301</i>
   <i name="EMIN">     10.00000000</i>
   <i name="EMAX">    -10.00000000</i>
   <i name="EFERMI">      0.00000000</i>
  </separator>
  <separator name="writing" >
   <i type="int" name="NWRITE">     2</i>
   <i type="logical" name="LWAVE"> F  </i>
   <i type="logical" name="LCHARG"> F  </i>
   <i type="logical" name="LPARD"> F  </i>
   <i type="logical" name="LVTOT"> F  </i>
   <i type="logical" name="LVHAR"> F  </i>
   <i type="logical" name="LELF"> F  </i>
   <i type="logical" name="LOPTICS"> F  </i>
   <v name="STM">      0.00000000      0.00000000      0.00000000      0.00000000      0.00000000      0.00000000      0.00000000</v>
  </separator>
  <separator name="performance" >
   <i type="int" name="NPAR">     4</i>
   <i type="int" name="NSIM">     4</i>
   <i type="int" name="NBLK">    -1</i>
   <i type="logical" name="LPLANE"> T  </i>
   <i type="logical" name="LSCALAPACK"> T  </i>
   <i type="logical" name="LSCAAWARE"> F  </i>
   <i type="logical" name="LSCALU"> F  </i>
   <i type="logical" name="LASYNC"> F  </i>
   <i type="logical" name="LORBITALREAL"> F  </i>
  </separator>
  <separator name="miscellaneous" >
   <i type="int" name="IDIOT">     3</i>
   <i type="logical" name="LMUSIC"> F  </i>
   <v name="POMASS">     24.30500000     32.06600000</v>
   <v name="DARWINR">      0.00000000      0.00000000</v>
   <v name="DARWINV">      1.00000000      1.00000000</v>
   <i type="logical" name="LCORR"> T  </i>
  </separator>
  <i type="logical" name="GGA_COMPAT"> T  </i>
  <i type="logical" name="LBERRY"> F  </i>
  <i type="int" name="ICORELEVEL">     0</i>
  <i type="logical" name="LDAU"> F  </i>
  <i type="int" name="I_CONSTRAINED_M">     0</i>
  <separator name="electronic exchange-correlation" >
   <i type="string" name="GGA">PS</i>
   <i type="int" name="VOSKOWN">     0</i>
   <i type="logical" name="LHFCALC"> F  </i>
   <i type="string" name="PRECFOCK"></i>
   <i type="logical" name="LSYMGRAD"> F  </i>
   <i type="logical" name="LHFONE"> F  </i>
   <i type="logical" name="LRHFCALC"> F  </i>
   <i type="logical" name="LTHOMAS"> F  </i>
   <i type="logical" name="LMODELHF"> F  </i>
   <i name="ENCUT4O">     -1.00000000</i>
   <i type="int" name="EXXOEP">     0</i>
   <i type="int" name="FOURORBIT">     0</i>
   <i name="AEXX">      0.00000000</i>
   <i name="HFALPHA">      0.00000000</i>
   <i name="MCALPHA">      0.00000000</i>
   <i name="ALDAX">      1.00000000</i>
   <i name="AGGAX">      1.00000000</i>
   <i name="ALDAC">      1.00000000</i>
   <i name="AGGAC">      1.00000000</i>
   <i type="int" name="NKREDX">     1</i>
   <i type="int" name="NKREDY">     1</i>
   <i type="int" name="NKREDZ">     1</i>
   <i type="logical" name="SHIFTRED"> F  </i>
   <i type="logical" name="ODDONLY"> F  </i>
   <i type="logical" name="EVENONLY"> F  </i>
   <i type="int" name="LMAXFOCK">     0</i>
   <i type="int" name="NMAXFOCKAE">     0</i>
   <i type="logical" name="LFOCKAEDFT"> F  </i>
   <i name="HFSCREEN">      0.00000000</i>
   <i name="HFSCREENC">      0.00000000</i>
   <i type="int" name="NBANDSGWLOW">     0</i>
  </separator>
  <separator name="vdW DFT" >
   <i type="logical" name="LUSE_VDW"> F  </i>
   <i name="Zab_VDW">     -0.84910000</i>
   <i name="PARAM1">      0.12340000</i>
   <i name="PARAM2">      1.00000000</i>
   <i name="PARAM3">      0.00000000</i>
  </separator>
  <separator name="model GW" >
   <i type="int" name="MODEL_GW">     0</i>
   <i name="MODEL_EPS0">     10.32595913</i>
   <i name="MODEL_ALPHA">      1.00000000</i>
  </separator>
  <separator name="linear response parameters" >
   <i type="logical" name="LEPSILON"> F  </i>
   <i type="logical" name="LRPA"> F  </i>
   <i type="logical" name="LNABLA"> F  </i>
   <i type="logical" name="LVEL"> F  </i>
   <i type="int" name="KINTER">     0</i>
   <i name="CSHIFT">      0.10000000</i>
   <i name="OMEGAMAX">     -1.00000000</i>
   <i name="DEG_THRESHOLD">      0.00200000</i>
  </separator>
  <separator name="orbital magnetization" >
   <i type="logical" name="NUCIND"> F  </i>
   <v name="MAGPOS">      0.00000000      0.00000000      0.00000000</v>
   <i type="logical" name="LNICSALL"> T  </i>
   <i type="logical" name="ORBITALMAG"> F  </i>
   <i type="logical" name="LMAGBLOCH"> F  </i>
   <i type="logical" name="LCHIMAG"> F  </i>
   <i type="logical" name="LGAUGE"> T  </i>
   <i type="int" name="MAGATOM">     0</i>
   <v name="MAGDIPOL">      0.00000000      0.00000000      0.00000000</v>
   <v name="AVECCONST">      0.00000000      0.00000000      0.00000000</v>
  </separator>
  <separator name="response functions" >
   <i type="logical" name="LADDER"> F  </i>
   <i type="logical" name="LFXC"> F  </i>
   <i type="logical" name="LHARTREE"> T  </i>
   <i type="int" name="IBSE">     0</i>
   <i type="logical" name="LTCTE"> F  </i>
   <i type="logical" name="LTETE"> F  </i>
   <i type="logical" name="LTRIPLET"> F  </i>
   <i type="logical" name="LFXCEPS"> F  </i>
   <i type="logical" name="LFXHEG"> F  </i>
   <i type="logical" name="L2ORDER"> F  </i>
   <i type="logical" name="LUSEW"> F  </i>
   <i name="ENCUTGW">     -2.00000000</i>
   <i name="ENCUTGWSOFT">     -2.00000000</i>
   <i name="ENCUTLF">     -1.00000000</i>
   <i type="int" name="LMAXMP2">    -1</i>
   <i name="SCISSOR">      0.00000000</i>
   <i type="int" name="NOMEGA">     0</i>
   <i type="int" name="NOMEGAR">     0</i>
   <i type="int" name="NBANDSGW">    -1</i>
   <i type="int" name="NBANDSO">    -1</i>
   <i type="int" name="NBANDSV">    -1</i>
   <i type="int" name="NELM">     1</i>
   <i type="int" name="DIM">     3</i>
   <i type="int" name="ANTIRES">     0</i>
   <i name="OMEGAMAX">    -30.00000000</i>
   <i name="OMEGAMIN">    -30.00000000</i>
   <i name="OMEGATL">   -200.00000000</i>
   <i type="int" name="OMEGAGRID">     0</i>
   <i name="CSHIFT">     -0.10000000</i>
   <i type="logical" name="SELFENERGY"> F  </i>
   <i type="logical" name="LSPECTRAL"> F  </i>
   <i type="logical" name="ODDONLYGW"> F  </i>
   <i type="logical" name="EVENONLYGW"> F  </i>
   <i type="int" name="NKREDLFX">     1</i>
   <i type="int" name="NKREDLFY">     1</i>
   <i type="int" name="NKREDLFZ">     1</i>
   <i type="int" name="MAXMEM">  1800</i>
   <i type="int" name="TELESCOPE">     0</i>
   <i type="int" name="TAUPAR">     1</i>
  </separator>
  <separator name="External order field" >
   <i name="OFIELD_KAPPA">      0.00000000</i>
   <v name="OFIELD_K">      0.00000000      0.00000000      0.00000000</v>
   <i name="OFIELD_Q6_NEAR">      0.00000000</i>
   <i name="OFIELD_Q6_FAR">      0.00000000</i>
   <i name="OFIELD_A">      0.00000000</i>
  </separator>
 </parameters>
 <atominfo>
  <atoms>      64 </atoms>
  <types>       2 </types>
  <array name="atoms" >
   <dimension dim="1">ion</dimension>
   <field type="string">element</field>
   <field type="int">atomtype</field>
   <set>
    <rc><c>Mg</c><c>   1</c></rc>
    <rc><c>Mg</c><c>   1</c></rc>
    <rc><c>Mg</c><c>   1</c></rc>
    <rc><c>Mg</c><c>   1</c></rc>
    <rc><c>Mg</c><c>   1</c></rc>
    <rc><c>Mg</c><c>   1</c></rc>
    <rc><c>Mg</c><c>   1</c></rc>
    <rc><c>Mg</c><c>   1</c></rc>
    <rc><c>Mg</c><c>   1</c></rc>
    <rc><c>Mg</c><c>   1</c></rc>
    <rc><c>Mg</c><c>   1</c></rc>
    <rc><c>Mg</c><c>   1</c></rc>
    <rc><c>Mg</c><c>   1</c></rc>
    <rc><c>Mg</c><c>   1</c></rc>
    <rc><c>Mg</c><c>   1</c></rc>
    <rc><c>Mg</c><c>   1</c></rc>
    <rc><c>Mg</c><c>   1</c></rc>
    <rc><c>Mg</c><c>   1</c></rc>
    <rc><c>Mg</c><c>   1</c></rc>
    <rc><c>Mg</c><c>   1</c></rc>
    <rc><c>Mg</c><c>   1</c></rc>
    <rc><c>Mg</c><c>   1</c></rc>
    <rc><c>Mg</c><c>   1</c></rc>
    <rc><c>Mg</c><c>   1</c></rc>
    <rc><c>Mg</c><c>   1</c></rc>
    <rc><c>Mg</c><c>   1</c></rc>
    <rc><c>Mg</c><c>   1</c></rc>
    <rc><c>Mg</c><c>   1</c></rc>
    <rc><c>Mg</c><c>   1</c></rc>
    <rc><c>Mg</c><c>   1</c></rc>
    <rc><c>Mg</c><c>   1</c></rc>
    <rc><c>Mg</c><c>   1</c></rc>
    <rc><c>S </c><c>   2</c></rc>
    <rc><c>S </c><c>   2</c></rc>
    <rc><c>S </c><c>   2</c></rc>
    <rc><c>S </c><c>   2</c></rc>
    <rc><c>S </c><c>   2</c></rc>
    <rc><c>S </c><c>   2</c></rc>
    <rc><c>S </c><c>   2</c></rc>
    <rc><c>S </c><c>   2</c></rc>
    <rc><c>S </c><c>   2</c></rc>
    <rc><c>S </c><c>   2</c></rc>
    <rc><c>S </c><c>   2</c></rc>
    <rc><c>S </c><c>   2</c></rc>
    <rc><c>S </c><c>   2</c></rc>
    <rc><c>S </c><c>   2</c></rc>
    <rc><c>S </c><c>   2</c></rc>
    <rc><c>S </c><c>   2</c></rc>
    <rc><c>S </c><c>   2</c></rc>
    <rc><c>S </c><c>   2</c></rc>
    <rc><c>S </c><c>   2</c></rc>
    <rc><c>S </c><c>   2</c></rc>
    <rc><c>S </c><c>   2</c></rc>
    <rc><c>S </c><c>   2</c></rc>
    <rc><c>S </c><c>   2</c></rc>
    <rc><c>S </c><c>   2</c></rc>
    <rc><c>S </c><c>   2</c></rc>
    <rc><c>S </c><c>   2</c></rc>
    <rc><c>S </c><c>   2</c></rc>
    <rc><c>S </c><c>   2</c></rc>
    <rc><c>S </c><c>   2</c></rc>
    <rc><c>S </c><c>   2</c></rc>
    <rc><c>S </c><c>   2</c></rc>
    <rc><c>S </c><c>   2</c></rc>
   </set>
  </array>
  <array name="atomtypes" >
   <dimension dim="1">type</dimension>
   <field type="int">atomspertype</field>
   <field type="string">element</field>
   <field>mass</field>
   <field>valence</field>
   <field type="string">pseudopotential</field>
   <set>
    <rc><c>  32</c><c>Mg</c><c>     24.30500000</c><c>      8.00000000</c><c>  PAW_PBE Mg_pv 13Apr2007               </c></rc>
    <rc><c>  32</c><c>S </c><c>     32.06600000</c><c>      6.00000000</c><c>  PAW_PBE S 06Sep2000                   </c></rc>
   </set>
  </array>
 </atominfo>
 <structure name="initialpos" >
  <crystal>
   <varray name="basis" >
    <v>      10.32729006       0.00000000       0.00000000 </v>
    <v>       0.00000000      10.32729006       0.00000000 </v>
    <v>       0.00000000       0.00000000      10.32729006 </v>
   </varray>
   <i name="volume">   1101.43564041 </i>
   <varray name="rec_basis" >
    <v>       0.09683082       0.00000000       0.00000000 </v>
    <v>       0.00000000       0.09683082       0.00000000 </v>
    <v>       0.00000000       0.00000000       0.09683082 </v>
   </varray>
  </crystal>
  <varray name="positions" >
   <v>       0.00096831       0.00000000       0.00000000 </v>
   <v>       0.50000000       0.00000000       0.00000000 </v>
   <v>       0.00000000       0.50000000       0.00000000 </v>
   <v>       0.50000000       0.50000000       0.00000000 </v>
   <v>       0.00000000       0.00000000       0.50000000 </v>
   <v>       0.50000000       0.00000000       0.50000000 </v>
   <v>       0.00000000       0.50000000       0.50000000 </v>
   <v>       0.50000000       0.50000000       0.50000000 </v>
   <v>       0.00000000       0.25000000       0.25000000 </v>
   <v>       0.50000000       0.25000000       0.25000000 </v>
   <v>       0.00000000       0.75000000       0.25000000 </v>
   <v>       0.50000000       0.75000000       0.25000000 </v>
   <v>       0.00000000       0.25000000       0.75000000 </v>
   <v>       0.50000000       0.25000000       0.75000000 </v>
   <v>       0.00000000       0.75000000       0.75000000 </v>
   <v>       0.50000000       0.75000000       0.75000000 </v>
   <v>       0.25000000       0.00000000       0.25000000 </v>
   <v>       0.75000000       0.00000000       0.25000000 </v>
   <v>       0.25000000       0.50000000       0.25000000 </v>
   <v>       0.75000000       0.50000000       0.25000000 </v>
   <v>       0.25000000       0.00000000       0.75000000 </v>
   <v>       0.75000000       0.00000000       0.75000000 </v>
   <v>       0.25000000       0.50000000       0.75000000 </v>
   <v>       0.75000000       0.50000000       0.75000000 </v>
   <v>       0.25000000       0.25000000       0.00000000 </v>
   <v>       0.75000000       0.25000000       0.00000000 </v>
   <v>       0.25000000       0.75000000       0.00000000 </v>
   <v>       0.75000000       0.75000000       0.00000000 </v>
   <v>       0.25000000       0.25000000       0.50000000 </v>
   <v>       0.75000000       0.25000000       0.50000000 </v>
   <v>       0.25000000       0.75000000       0.50000000 </v>
   <v>       0.75000000       0.75000000       0.50000000 </v>
   <v>       0.25000000       0.00000000       0.00000000 </v>
   <v>       0.75000000       0.00000000       0.00000000 </v>
   <v>       0.25000000       0.50000000       0.00000000 </v>
   <v>       0.75000000       0.50000000       0.00000000 </v>
   <v>       0.25000000       0.00000000       0.50000000 </v>
   <v>       0.75000000       0.00000000       0.50000000 </v>
   <v>       0.25000000       0.50000000       0.50000000 </v>
   <v>       0.75000000       0.50000000       0.50000000 </v>
   <v>       0.25000000       0.25000000       0.25000000 </v>
   <v>       0.75000000       0.25000000       0.25000000 </v>
   <v>       0.25000000       0.75000000       0.25000000 </v>
   <v>       0.75000000       0.75000000       0.25000000 </v>
   <v>       0.25000000       0.25000000       0.75000000 </v>
   <v>       0.75000000       0.25000000       0.75000000 </v>
   <v>       0.25000000       0.75000000       0.75000000 </v>
   <v>       0.75000000       0.75000000       0.75000000 </v>
   <v>       0.00000000       0.00000000       0.25000000 </v>
   <v>       0.50000000       0.00000000       0.25000000 </v>
   <v>       0.00000000       0.50000000       0.25000000 </v>
   <v>       0.50000000       0.50000000       0.25000000 </v>
   <v>       0.00000000       0.00000000       0.75000000 </v>
   <v>       0.50000000       0.00000000       0.75000000 </v>
   <v>       0.00000000       0.50000000       0.75000000 </v>
   <v>       0.50000000       0.50000000       0.75000000 </v>
   <v>       0.00000000       0.25000000       0.00000000 </v>
   <v>       0.50000000       0.25000000       0.00000000 </v>
   <v>       0.00000000       0.75000000       0.00000000 </v>
   <v>       0.50000000       0.75000000       0.00000000 </v>
   <v>       0.00000000       0.25000000       0.50000000 </v>
   <v>       0.50000000       0.25000000       0.50000000 </v>
   <v>       0.00000000       0.75000000       0.50000000 </v>
   <v>       0.50000000       0.75000000       0.50000000 </v>
  </varray>
 </structure>
 <calculation>
  <scstep>
   <time name="dav">   24.23   24.23</time>
   <time name="total">   24.62   24.63</time>
   <energy>
    <i name="alphaZ">   1233.74239958 </i>
    <i name="ewald"> -25124.96964297 </i>
    <i name="hartreedc">  -9278.23112713 </i>
    <i name="XCdc">   1276.34791657 </i>
    <i name="pawpsdc">  27701.73694044 </i>
    <i name="pawaedc"> -31358.41014717 </i>
    <i name="eentropy">     -0.00020433 </i>
    <i name="bandstr">  -2702.96791363 </i>
    <i name="atom">  42573.64344421 </i>
    <i name="e_fr_energy">   4320.89166556 </i>
    <i name="e_wo_entrp">   4320.89186990 </i>
    <i name="e_0_energy">   4320.89176773 </i>
   </energy>
  </scstep>
  <scstep>
   <time name="dav">   23.98   23.98</time>
   <time name="total">   23.98   23.99</time>
   <energy>
    <i name="e_fr_energy">    103.71802377 </i>
    <i name="e_wo_entrp">    103.71802377 </i>
    <i name="e_0_energy">    103.71802377 </i>
   </energy>
  </scstep>
  <scstep>
   <time name="dav">   24.25   24.25</time>
   <time name="total">   24.25   24.26</time>
   <energy>
    <i name="e_fr_energy">   -281.80435852 </i>
    <i name="e_wo_entrp">   -281.80435852 </i>
    <i name="e_0_energy">   -281.80435852 </i>
   </energy>
  </scstep>
  <scstep>
   <time name="dav">   23.10   23.10</time>
   <time name="total">   23.10   23.11</time>
   <energy>
    <i name="e_fr_energy">   -300.65260994 </i>
    <i name="e_wo_entrp">   -300.65260994 </i>
    <i name="e_0_energy">   -300.65260994 </i>
   </energy>
  </scstep>
  <scstep>
   <time name="dav">   25.01   25.02</time>
   <time name="total">   26.04   26.05</time>
   <energy>
    <i name="e_fr_energy">   -301.52971881 </i>
    <i name="e_wo_entrp">   -301.52971881 </i>
    <i name="e_0_energy">   -301.52971881 </i>
   </energy>
  </scstep>
  <scstep>
   <time name="dav">   22.91   22.92</time>
   <time name="total">   24.27   24.28</time>
   <energy>
    <i name="e_fr_energy">   -291.13444077 </i>
    <i name="e_wo_entrp">   -291.13444077 </i>
    <i name="e_0_energy">   -291.13444077 </i>
   </energy>
  </scstep>
  <scstep>
   <time name="dav">   23.74   23.75</time>
   <time name="total">   25.16   25.17</time>
   <energy>
    <i name="e_fr_energy">   -289.87283048 </i>
    <i name="e_wo_entrp">   -289.87283048 </i>
    <i name="e_0_energy">   -289.87283048 </i>
   </energy>
  </scstep>
  <scstep>
   <time name="dav">   22.49   22.50</time>
   <time name="total">   23.87   23.88</time>
   <energy>
    <i name="e_fr_energy">   -289.79284752 </i>
    <i name="e_wo_entrp">   -289.79284752 </i>
    <i name="e_0_energy">   -289.79284752 </i>
   </energy>
  </scstep>
  <scstep>
   <time name="dav">   23.23   23.23</time>
   <time name="total">   24.62   24.63</time>
   <energy>
    <i name="e_fr_energy">   -289.78811539 </i>
    <i name="e_wo_entrp">   -289.78811539 </i>
    <i name="e_0_energy">   -289.78811539 </i>
   </energy>
  </scstep>
  <scstep>
   <time name="dav">   23.53   23.53</time>
   <time name="total">   24.98   24.99</time>
   <energy>
    <i name="e_fr_energy">   -289.78856707 </i>
    <i name="e_wo_entrp">   -289.78856707 </i>
    <i name="e_0_energy">   -289.78856707 </i>
   </energy>
  </scstep>
  <scstep>
   <time name="dav">   22.60   22.60</time>
   <time name="total">   24.01   24.00</time>
   <energy>
    <i name="e_fr_energy">   -289.78832044 </i>
    <i name="e_wo_entrp">   -289.78832044 </i>
    <i name="e_0_energy">   -289.78832044 </i>
   </energy>
  </scstep>
  <scstep>
   <time name="dav">   23.59   23.58</time>
   <time name="total">   24.99   24.98</time>
   <energy>
    <i name="e_fr_energy">   -289.78832277 </i>
    <i name="e_wo_entrp">   -289.78832277 </i>
    <i name="e_0_energy">   -289.78832277 </i>
   </energy>
  </scstep>
  <scstep>
   <time name="dav">   22.98   22.97</time>
   <time name="total">   24.38   24.38</time>
   <energy>
    <i name="e_fr_energy">   -289.78832611 </i>
    <i name="e_wo_entrp">   -289.78832611 </i>
    <i name="e_0_energy">   -289.78832611 </i>
   </energy>
  </scstep>
  <scstep>
   <time name="dav">   22.81   22.80</time>
   <time name="total">   24.22   24.22</time>
   <energy>
    <i name="e_fr_energy">   -289.78832568 </i>
    <i name="e_wo_entrp">   -289.78832568 </i>
    <i name="e_0_energy">   -289.78832568 </i>
   </energy>
  </scstep>
  <scstep>
   <time name="dav">   20.46   20.46</time>
   <time name="total">   21.88   21.87</time>
   <energy>
    <i name="e_fr_energy">   -289.78832565 </i>
    <i name="e_wo_entrp">   -289.78832565 </i>
    <i name="e_0_energy">   -289.78832565 </i>
   </energy>
  </scstep>
  <scstep>
   <time name="dav">   19.67   19.66</time>
   <time name="total">   20.06   20.06</time>
   <energy>
    <i name="alphaZ">   1233.74239958 </i>
    <i name="ewald"> -25124.96964297 </i>
    <i name="hartreedc">  -9207.06558156 </i>
    <i name="XCdc">   1292.51264692 </i>
    <i name="pawpsdc">  37650.83359198 </i>
    <i name="pawaedc"> -41275.66039717 </i>
    <i name="eentropy">      0.00000000 </i>
    <i name="bandstr">  -7432.82478664 </i>
    <i name="atom">  42573.64344421 </i>
    <i name="e_fr_energy">   -289.78832565 </i>
    <i name="e_wo_entrp">   -289.78832565 </i>
    <i name="e_0_energy">   -289.78832565 </i>
   </energy>
  </scstep>
  <structure>
   <crystal>
    <varray name="basis" >
     <v>      10.32729006       0.00000000       0.00000000 </v>
     <v>       0.00000000      10.32729006       0.00000000 </v>
     <v>       0.00000000       0.00000000      10.32729006 </v>
    </varray>
    <i name="volume">   1101.43564041 </i>
    <varray name="rec_basis" >
     <v>       0.09683082       0.00000000       0.00000000 </v>
     <v>       0.00000000       0.09683082       0.00000000 </v>
     <v>       0.00000000       0.00000000       0.09683082 </v>
    </varray>
   </crystal>
   <varray name="positions" >
    <v>       0.00096831       0.00000000       0.00000000 </v>
    <v>       0.50000000       0.00000000       0.00000000 </v>
    <v>       0.00000000       0.50000000       0.00000000 </v>
    <v>       0.50000000       0.50000000       0.00000000 </v>
    <v>       0.00000000       0.00000000       0.50000000 </v>
    <v>       0.50000000       0.00000000       0.50000000 </v>
    <v>       0.00000000       0.50000000       0.50000000 </v>
    <v>       0.50000000       0.50000000       0.50000000 </v>
    <v>       0.00000000       0.25000000       0.25000000 </v>
    <v>       0.50000000       0.25000000       0.25000000 </v>
    <v>       0.00000000       0.75000000       0.25000000 </v>
    <v>       0.50000000       0.75000000       0.25000000 </v>
    <v>       0.00000000       0.25000000       0.75000000 </v>
    <v>       0.50000000       0.25000000       0.75000000 </v>
    <v>       0.00000000       0.75000000       0.75000000 </v>
    <v>       0.50000000       0.75000000       0.75000000 </v>
    <v>       0.25000000       0.00000000       0.25000000 </v>
    <v>       0.75000000       0.00000000       0.25000000 </v>
    <v>       0.25000000       0.50000000       0.25000000 </v>
    <v>       0.75000000       0.50000000       0.25000000 </v>
    <v>       0.25000000       0.00000000       0.75000000 </v>
    <v>       0.75000000       0.00000000       0.75000000 </v>
    <v>       0.25000000       0.50000000       0.75000000 </v>
    <v>       0.75000000       0.50000000       0.75000000 </v>
    <v>       0.25000000       0.25000000       0.00000000 </v>
    <v>       0.75000000       0.25000000       0.00000000 </v>
    <v>       0.25000000       0.75000000       0.00000000 </v>
    <v>       0.75000000       0.75000000       0.00000000 </v>
    <v>       0.25000000       0.25000000       0.50000000 </v>
    <v>       0.75000000       0.25000000       0.50000000 </v>
    <v>       0.25000000       0.75000000       0.50000000 </v>
    <v>       0.75000000       0.75000000       0.50000000 </v>
    <v>       0.25000000       0.00000000       0.00000000 </v>
    <v>       0.75000000       0.00000000       0.00000000 </v>
    <v>       0.25000000       0.50000000       0.00000000 </v>
    <v>       0.75000000       0.50000000       0.00000000 </v>
    <v>       0.25000000       0.00000000       0.50000000 </v>
    <v>       0.75000000       0.00000000       0.50000000 </v>
    <v>       0.25000000       0.50000000       0.50000000 </v>
    <v>       0.75000000       0.50000000       0.50000000 </v>
    <v>       0.25000000       0.25000000       0.25000000 </v>
    <v>       0.75000000       0.25000000       0.25000000 </v>
    <v>       0.25000000       0.75000000       0.25000000 </v>
    <v>       0.75000000       0.75000000       0.25000000 </v>
    <v>       0.25000000       0.25000000       0.75000000 </v>
    <v>       0.75000000       0.25000000       0.75000000 </v>
    <v>       0.25000000       0.75000000       0.75000000 </v>
    <v>       0.75000000       0.75000000       0.75000000 </v>
    <v>       0.00000000       0.00000000       0.25000000 </v>
    <v>       0.50000000       0.00000000       0.25000000 </v>
    <v>       0.00000000       0.50000000       0.25000000 </v>
    <v>       0.50000000       0.50000000       0.25000000 </v>
    <v>       0.00000000       0.00000000       0.75000000 </v>
    <v>       0.50000000       0.00000000       0.75000000 </v>
    <v>       0.00000000       0.50000000       0.75000000 </v>
    <v>       0.50000000       0.50000000       0.75000000 </v>
    <v>       0.00000000       0.25000000       0.00000000 </v>
    <v>       0.50000000       0.25000000       0.00000000 </v>
    <v>       0.00000000       0.75000000       0.00000000 </v>
    <v>       0.50000000       0.75000000       0.00000000 </v>
    <v>       0.00000000       0.25000000       0.50000000 </v>
    <v>       0.50000000       0.25000000       0.50000000 </v>
    <v>       0.00000000       0.75000000       0.50000000 </v>
    <v>       0.50000000       0.75000000       0.50000000 </v>
   </varray>
  </structure>
  <varray name="forces" >
   <v>      -0.05037745       0.00000000       0.00000000 </v>
   <v>       0.01079119       0.00000000       0.00000000 </v>
   <v>       0.00128122       0.00000000       0.00000000 </v>
   <v>      -0.00068467       0.00000000       0.00000000 </v>
   <v>       0.00128122       0.00000000       0.00000000 </v>
   <v>      -0.00068467       0.00000000       0.00000000 </v>
   <v>      -0.00050527       0.00000000       0.00000000 </v>
   <v>       0.00049622       0.00000000       0.00000000 </v>
   <v>      -0.00100575      -0.00000553      -0.00000553 </v>
   <v>       0.00074244       0.00000117       0.00000117 </v>
   <v>      -0.00100575       0.00000553      -0.00000553 </v>
   <v>       0.00074244      -0.00000117       0.00000117 </v>
   <v>      -0.00100575      -0.00000553       0.00000553 </v>
   <v>       0.00074244       0.00000117      -0.00000117 </v>
   <v>      -0.00100575       0.00000553       0.00000553 </v>
   <v>       0.00074244      -0.00000117      -0.00000117 </v>
   <v>       0.00091737       0.00000000       0.00622459 </v>
   <v>       0.00091481       0.00000000      -0.00618087 </v>
   <v>      -0.00001329       0.00000000      -0.00052699 </v>
   <v>      -0.00001113       0.00000000       0.00052460 </v>
   <v>       0.00091737       0.00000000      -0.00622459 </v>
   <v>       0.00091481       0.00000000       0.00618087 </v>
   <v>      -0.00001329       0.00000000       0.00052699 </v>
   <v>      -0.00001113       0.00000000      -0.00052460 </v>
   <v>       0.00091737       0.00622459       0.00000000 </v>
   <v>       0.00091481      -0.00618087       0.00000000 </v>
   <v>       0.00091737      -0.00622459       0.00000000 </v>
   <v>       0.00091481       0.00618087       0.00000000 </v>
   <v>      -0.00001329      -0.00052699       0.00000000 </v>
   <v>      -0.00001113       0.00052460       0.00000000 </v>
   <v>      -0.00001329       0.00052699       0.00000000 </v>
   <v>      -0.00001113      -0.00052460       0.00000000 </v>
   <v>       0.01544593       0.00000000       0.00000000 </v>
   <v>       0.01427477       0.00000000       0.00000000 </v>
   <v>       0.00047018       0.00000000       0.00000000 </v>
   <v>       0.00047108       0.00000000       0.00000000 </v>
   <v>       0.00047018       0.00000000       0.00000000 </v>
   <v>       0.00047108       0.00000000       0.00000000 </v>
   <v>      -0.00001109       0.00000000       0.00000000 </v>
   <v>      -0.00000814       0.00000000       0.00000000 </v>
   <v>      -0.00001763      -0.00096672      -0.00096672 </v>
   <v>      -0.00002010       0.00095797       0.00095797 </v>
   <v>      -0.00001763       0.00096672      -0.00096672 </v>
   <v>      -0.00002010      -0.00095797       0.00095797 </v>
   <v>      -0.00001763      -0.00096672       0.00096672 </v>
   <v>      -0.00002010       0.00095797      -0.00095797 </v>
   <v>      -0.00001763       0.00096672       0.00096672 </v>
   <v>      -0.00002010      -0.00095797      -0.00095797 </v>
   <v>       0.00292558       0.00000000      -0.00004675 </v>
   <v>      -0.00266744       0.00000000      -0.00000257 </v>
   <v>       0.00036575       0.00000000       0.00000510 </v>
   <v>      -0.00042605       0.00000000      -0.00000030 </v>
   <v>       0.00292558       0.00000000       0.00004675 </v>
   <v>      -0.00266744       0.00000000       0.00000257 </v>
   <v>       0.00036575       0.00000000      -0.00000510 </v>
   <v>      -0.00042605       0.00000000       0.00000030 </v>
   <v>       0.00292558      -0.00004675       0.00000000 </v>
   <v>      -0.00266744      -0.00000257       0.00000000 </v>
   <v>       0.00292558       0.00004675       0.00000000 </v>
   <v>      -0.00266744       0.00000257       0.00000000 </v>
   <v>       0.00036575       0.00000510       0.00000000 </v>
   <v>      -0.00042605      -0.00000030       0.00000000 </v>
   <v>       0.00036575      -0.00000510       0.00000000 </v>
   <v>      -0.00042605       0.00000030       0.00000000 </v>
  </varray>
  <varray name="stress" >
   <v>       8.03057076       0.00000000       0.00000000 </v>
   <v>       0.00000000       8.02657998       0.00000000 </v>
   <v>       0.00000000       0.00000000       8.02657998 </v>
  </varray>
  <energy>
   <i name="e_fr_energy">   -289.78832565 </i>
   <i name="e_wo_entrp">   -289.78832565 </i>
   <i name="e_0_energy">      0.00000000 </i>
  </energy>
  <time name="totalsc">  418.71  418.76</time>
  <eigenvalues>
   <array>
    <dimension dim="1">band</dimension>
    <dimension dim="2">kpoint</dimension>
    <dimension dim="3">spin</dimension>
    <field>eigene</field>
    <field>occ</field>
    <set>
     <set comment="spin 1">
      <set comment="kpoint 1">
       <r>  -37.5343    1.0000 </r>
       <r>  -37.5342    1.0000 </r>
       <r>  -37.5339    1.0000 </r>
       <r>  -37.5339    1.0000 </r>
       <r>  -37.5333    1.0000 </r>
       <r>  -37.5333    1.0000 </r>
       <r>  -37.5331    1.0000 </r>
       <r>  -37.5319    1.0000 </r>
       <r>  -37.5318    1.0000 </r>
       <r>  -37.5318    1.0000 </r>
       <r>  -37.5318    1.0000 </r>
       <r>  -37.5317    1.0000 </r>
       <r>  -37.5316    1.0000 </r>
       <r>  -37.5316    1.0000 </r>
       <r>  -37.5316    1.0000 </r>
       <r>  -37.5313    1.0000 </r>
       <r>  -37.5313    1.0000 </r>
       <r>  -37.5313    1.0000 </r>
       <r>  -37.5313    1.0000 </r>
       <r>  -37.5313    1.0000 </r>
       <r>  -37.5311    1.0000 </r>
       <r>  -37.5309    1.0000 </r>
       <r>  -37.5308    1.0000 </r>
       <r>  -37.5307    1.0000 </r>
       <r>  -37.5307    1.0000 </r>
       <r>  -37.5306    1.0000 </r>
       <r>  -37.5306    1.0000 </r>
       <r>  -37.5306    1.0000 </r>
       <r>  -37.5305    1.0000 </r>
       <r>  -37.5304    1.0000 </r>
       <r>  -37.5304    1.0000 </r>
       <r>  -37.5297    1.0000 </r>
       <r>  -37.5295    1.0000 </r>
       <r>  -37.5295    1.0000 </r>
       <r>  -37.5295    1.0000 </r>
       <r>  -37.5295    1.0000 </r>
       <r>  -37.5294    1.0000 </r>
       <r>  -37.5294    1.0000 </r>
       <r>  -37.5293    1.0000 </r>
       <r>  -37.5293    1.0000 </r>
       <r>  -37.5291    1.0000 </r>
       <r>  -37.5291    1.0000 </r>
       <r>  -37.5291    1.0000 </r>
       <r>  -37.5289    1.0000 </r>
       <r>  -37.5289    1.0000 </r>
       <r>  -37.5289    1.0000 </r>
       <r>  -37.5289    1.0000 </r>
       <r>  -37.5289    1.0000 </r>
       <r>  -37.5289    1.0000 </r>
       <r>  -37.5288    1.0000 </r>
       <r>  -37.5288    1.0000 </r>
       <r>  -37.5288    1.0000 </r>
       <r>  -37.5288    1.0000 </r>
       <r>  -37.5287    1.0000 </r>
       <r>  -37.5287    1.0000 </r>
       <r>  -37.5287    1.0000 </r>
       <r>  -37.5287    1.0000 </r>
       <r>  -37.5286    1.0000 </r>
       <r>  -37.5282    1.0000 </r>
       <r>  -37.5282    1.0000 </r>
       <r>  -37.5278    1.0000 </r>
       <r>  -37.5278    1.0000 </r>
       <r>  -37.5277    1.0000 </r>
       <r>  -37.5275    1.0000 </r>
       <r>  -37.5275    1.0000 </r>
       <r>  -37.5274    1.0000 </r>
       <r>  -37.5274    1.0000 </r>
       <r>  -37.5273    1.0000 </r>
       <r>  -37.5273    1.0000 </r>
       <r>  -37.5272    1.0000 </r>
       <r>  -37.5272    1.0000 </r>
       <r>  -37.5271    1.0000 </r>
       <r>  -37.5270    1.0000 </r>
       <r>  -37.5269    1.0000 </r>
       <r>  -37.5269    1.0000 </r>
       <r>  -37.5268    1.0000 </r>
       <r>  -37.5267    1.0000 </r>
       <r>  -37.5267    1.0000 </r>
       <r>  -37.5267    1.0000 </r>
       <r>  -37.5267    1.0000 </r>
       <r>  -37.5267    1.0000 </r>
       <r>  -37.5266    1.0000 </r>
       <r>  -37.5266    1.0000 </r>
       <r>  -37.5264    1.0000 </r>
       <r>  -37.5264    1.0000 </r>
       <r>  -37.5264    1.0000 </r>
       <r>  -37.5264    1.0000 </r>
       <r>  -37.5262    1.0000 </r>
       <r>  -37.5261    1.0000 </r>
       <r>  -37.5259    1.0000 </r>
       <r>  -37.5259    1.0000 </r>
       <r>  -37.5254    1.0000 </r>
       <r>  -37.5253    1.0000 </r>
       <r>  -37.5252    1.0000 </r>
       <r>  -37.5250    1.0000 </r>
       <r>  -37.5250    1.0000 </r>
       <r>   -9.1430    1.0000 </r>
       <r>   -8.3668    1.0000 </r>
       <r>   -8.3644    1.0000 </r>
       <r>   -8.3644    1.0000 </r>
       <r>   -8.3644    1.0000 </r>
       <r>   -8.3644    1.0000 </r>
       <r>   -8.3621    1.0000 </r>
       <r>   -7.8359    1.0000 </r>
       <r>   -7.8313    1.0000 </r>
       <r>   -7.8313    1.0000 </r>
       <r>   -7.8312    1.0000 </r>
       <r>   -7.8312    1.0000 </r>
       <r>   -7.8312    1.0000 </r>
       <r>   -7.8312    1.0000 </r>
       <r>   -7.8312    1.0000 </r>
       <r>   -7.8312    1.0000 </r>
       <r>   -7.8311    1.0000 </r>
       <r>   -7.8311    1.0000 </r>
       <r>   -7.8267    1.0000 </r>
       <r>   -7.7453    1.0000 </r>
       <r>   -7.7453    1.0000 </r>
       <r>   -7.7453    1.0000 </r>
       <r>   -7.7452    1.0000 </r>
       <r>   -7.3593    1.0000 </r>
       <r>   -7.3593    1.0000 </r>
       <r>   -7.3593    1.0000 </r>
       <r>   -7.3089    1.0000 </r>
       <r>   -7.3067    1.0000 </r>
       <r>   -7.3067    1.0000 </r>
       <r>   -7.3067    1.0000 </r>
       <r>   -7.3067    1.0000 </r>
       <r>   -7.3043    1.0000 </r>
       <r>   -1.3426    1.0000 </r>
       <r>   -1.3426    1.0000 </r>
       <r>   -1.3426    1.0000 </r>
       <r>   -1.3425    1.0000 </r>
       <r>   -0.6959    1.0000 </r>
       <r>   -0.6959    1.0000 </r>
       <r>   -0.6959    1.0000 </r>
       <r>   -0.1589    1.0000 </r>
       <r>   -0.1589    1.0000 </r>
       <r>   -0.1583    1.0000 </r>
       <r>   -0.1577    1.0000 </r>
       <r>   -0.1576    1.0000 </r>
       <r>   -0.1575    1.0000 </r>
       <r>   -0.1575    1.0000 </r>
       <r>   -0.1575    1.0000 </r>
       <r>   -0.1573    1.0000 </r>
       <r>   -0.1568    1.0000 </r>
       <r>   -0.1562    1.0000 </r>
       <r>   -0.1562    1.0000 </r>
       <r>    0.2969    1.0000 </r>
       <r>    0.2969    1.0000 </r>
       <r>    0.2981    1.0000 </r>
       <r>    0.2981    1.0000 </r>
       <r>    0.2986    1.0000 </r>
       <r>    0.2986    1.0000 </r>
       <r>    0.2986    1.0000 </r>
       <r>    0.2986    1.0000 </r>
       <r>    0.2990    1.0000 </r>
       <r>    0.2990    1.0000 </r>
       <r>    0.3002    1.0000 </r>
       <r>    0.3002    1.0000 </r>
       <r>    1.0360    1.0000 </r>
       <r>    1.0368    1.0000 </r>
       <r>    1.0368    1.0000 </r>
       <r>    1.0368    1.0000 </r>
       <r>    1.0368    1.0000 </r>
       <r>    1.0377    1.0000 </r>
       <r>    1.2159    1.0000 </r>
       <r>    1.2163    1.0000 </r>
       <r>    1.2166    1.0000 </r>
       <r>    1.2166    1.0000 </r>
       <r>    1.2170    1.0000 </r>
       <r>    1.2176    1.0000 </r>
       <r>    1.2254    1.0000 </r>
       <r>    1.2254    1.0000 </r>
       <r>    1.2260    1.0000 </r>
       <r>    1.2263    1.0000 </r>
       <r>    1.2263    1.0000 </r>
       <r>    1.2263    1.0000 </r>
       <r>    1.2266    1.0000 </r>
       <r>    1.2266    1.0000 </r>
       <r>    1.2266    1.0000 </r>
       <r>    1.2274    1.0000 </r>
       <r>    1.2274    1.0000 </r>
       <r>    1.2274    1.0000 </r>
       <r>    1.9203    1.0000 </r>
       <r>    1.9203    1.0000 </r>
       <r>    1.9203    1.0000 </r>
       <r>    1.9203    1.0000 </r>
       <r>    1.9203    1.0000 </r>
       <r>    1.9203    1.0000 </r>
       <r>    2.6577    1.0000 </r>
       <r>    2.6577    1.0000 </r>
       <r>    2.6584    1.0000 </r>
       <r>    2.6584    1.0000 </r>
       <r>    2.6588    1.0000 </r>
       <r>    2.6589    1.0000 </r>
       <r>    2.6589    1.0000 </r>
       <r>    2.6589    1.0000 </r>
       <r>    2.6594    1.0000 </r>
       <r>    2.6594    1.0000 </r>
       <r>    2.6601    1.0000 </r>
       <r>    2.6601    1.0000 </r>
       <r>    3.0061    1.0000 </r>
       <r>    3.0061    1.0000 </r>
       <r>    3.0067    1.0000 </r>
       <r>    3.0074    1.0000 </r>
       <r>    3.0074    1.0000 </r>
       <r>    3.0074    1.0000 </r>
       <r>    3.0074    1.0000 </r>
       <r>    3.0074    1.0000 </r>
       <r>    3.0075    1.0000 </r>
       <r>    3.0081    1.0000 </r>
       <r>    3.0086    1.0000 </r>
       <r>    3.0086    1.0000 </r>
       <r>    3.0493    1.0000 </r>
       <r>    3.0493    1.0000 </r>
       <r>    3.0493    1.0000 </r>
       <r>    3.0493    1.0000 </r>
       <r>    3.0493    1.0000 </r>
       <r>    3.0493    1.0000 </r>
       <r>    3.0494    1.0000 </r>
       <r>    3.0494    1.0000 </r>
       <r>    3.6772    1.0000 </r>
       <r>    3.6772    1.0000 </r>
       <r>    3.6773    1.0000 </r>
       <r>    6.4326    0.0000 </r>
       <r>    6.4326    0.0000 </r>
       <r>    6.4326    0.0000 </r>
       <r>    7.4531    0.0000 </r>
       <r>    7.8469    0.0000 </r>
       <r>    7.8469    0.0000 </r>
       <r>    7.8469    0.0000 </r>
       <r>    8.1110    0.0000 </r>
       <r>    8.1110    0.0000 </r>
       <r>    8.1110    0.0000 </r>
       <r>    8.1110    0.0000 </r>
       <r>    8.7031    0.0000 </r>
       <r>    8.7036    0.0000 </r>
       <r>    8.7036    0.0000 </r>
       <r>    8.7036    0.0000 </r>
       <r>    8.7036    0.0000 </r>
       <r>    8.7041    0.0000 </r>
       <r>    8.9799    0.0000 </r>
       <r>    8.9806    0.0000 </r>
       <r>    8.9806    0.0000 </r>
       <r>    8.9806    0.0000 </r>
       <r>    8.9806    0.0000 </r>
       <r>    8.9813    0.0000 </r>
       <r>    9.1060    0.0000 </r>
       <r>    9.1073    0.0000 </r>
       <r>    9.1073    0.0000 </r>
       <r>    9.1074    0.0000 </r>
       <r>    9.1074    0.0000 </r>
       <r>    9.1087    0.0000 </r>
       <r>    9.2864    0.0000 </r>
       <r>    9.2870    0.0000 </r>
       <r>    9.2870    0.0000 </r>
       <r>    9.2875    0.0000 </r>
       <r>    9.2876    0.0000 </r>
       <r>    9.2876    0.0000 </r>
       <r>    9.2876    0.0000 </r>
       <r>    9.2876    0.0000 </r>
       <r>    9.2877    0.0000 </r>
       <r>    9.2882    0.0000 </r>
       <r>    9.2882    0.0000 </r>
       <r>    9.2888    0.0000 </r>
       <r>   10.5320    0.0000 </r>
       <r>   10.5320    0.0000 </r>
       <r>   10.5320    0.0000 </r>
      </set>
      <set comment="kpoint 2">
       <r>  -37.5339    1.0000 </r>
       <r>  -37.5338    1.0000 </r>
       <r>  -37.5332    1.0000 </r>
       <r>  -37.5332    1.0000 </r>
       <r>  -37.5331    1.0000 </r>
       <r>  -37.5331    1.0000 </r>
       <r>  -37.5327    1.0000 </r>
       <r>  -37.5325    1.0000 </r>
       <r>  -37.5325    1.0000 </r>
       <r>  -37.5321    1.0000 </r>
       <r>  -37.5321    1.0000 </r>
       <r>  -37.5319    1.0000 </r>
       <r>  -37.5318    1.0000 </r>
       <r>  -37.5318    1.0000 </r>
       <r>  -37.5317    1.0000 </r>
       <r>  -37.5317    1.0000 </r>
       <r>  -37.5317    1.0000 </r>
       <r>  -37.5316    1.0000 </r>
       <r>  -37.5315    1.0000 </r>
       <r>  -37.5315    1.0000 </r>
       <r>  -37.5315    1.0000 </r>
       <r>  -37.5313    1.0000 </r>
       <r>  -37.5310    1.0000 </r>
       <r>  -37.5310    1.0000 </r>
       <r>  -37.5310    1.0000 </r>
       <r>  -37.5308    1.0000 </r>
       <r>  -37.5305    1.0000 </r>
       <r>  -37.5304    1.0000 </r>
       <r>  -37.5304    1.0000 </r>
       <r>  -37.5303    1.0000 </r>
       <r>  -37.5301    1.0000 </r>
       <r>  -37.5301    1.0000 </r>
       <r>  -37.5301    1.0000 </r>
       <r>  -37.5300    1.0000 </r>
       <r>  -37.5298    1.0000 </r>
       <r>  -37.5298    1.0000 </r>
       <r>  -37.5297    1.0000 </r>
       <r>  -37.5297    1.0000 </r>
       <r>  -37.5297    1.0000 </r>
       <r>  -37.5297    1.0000 </r>
       <r>  -37.5297    1.0000 </r>
       <r>  -37.5290    1.0000 </r>
       <r>  -37.5290    1.0000 </r>
       <r>  -37.5287    1.0000 </r>
       <r>  -37.5287    1.0000 </r>
       <r>  -37.5287    1.0000 </r>
       <r>  -37.5287    1.0000 </r>
       <r>  -37.5284    1.0000 </r>
       <r>  -37.5284    1.0000 </r>
       <r>  -37.5284    1.0000 </r>
       <r>  -37.5284    1.0000 </r>
       <r>  -37.5282    1.0000 </r>
       <r>  -37.5282    1.0000 </r>
       <r>  -37.5281    1.0000 </r>
       <r>  -37.5281    1.0000 </r>
       <r>  -37.5280    1.0000 </r>
       <r>  -37.5280    1.0000 </r>
       <r>  -37.5280    1.0000 </r>
       <r>  -37.5280    1.0000 </r>
       <r>  -37.5278    1.0000 </r>
       <r>  -37.5278    1.0000 </r>
       <r>  -37.5278    1.0000 </r>
       <r>  -37.5277    1.0000 </r>
       <r>  -37.5277    1.0000 </r>
       <r>  -37.5275    1.0000 </r>
       <r>  -37.5275    1.0000 </r>
       <r>  -37.5275    1.0000 </r>
       <r>  -37.5275    1.0000 </r>
       <r>  -37.5274    1.0000 </r>
       <r>  -37.5273    1.0000 </r>
       <r>  -37.5272    1.0000 </r>
       <r>  -37.5270    1.0000 </r>
       <r>  -37.5270    1.0000 </r>
       <r>  -37.5270    1.0000 </r>
       <r>  -37.5269    1.0000 </r>
       <r>  -37.5269    1.0000 </r>
       <r>  -37.5267    1.0000 </r>
       <r>  -37.5267    1.0000 </r>
       <r>  -37.5267    1.0000 </r>
       <r>  -37.5267    1.0000 </r>
       <r>  -37.5267    1.0000 </r>
       <r>  -37.5267    1.0000 </r>
       <r>  -37.5266    1.0000 </r>
       <r>  -37.5265    1.0000 </r>
       <r>  -37.5265    1.0000 </r>
       <r>  -37.5265    1.0000 </r>
       <r>  -37.5265    1.0000 </r>
       <r>  -37.5263    1.0000 </r>
       <r>  -37.5260    1.0000 </r>
       <r>  -37.5259    1.0000 </r>
       <r>  -37.5259    1.0000 </r>
       <r>  -37.5257    1.0000 </r>
       <r>  -37.5253    1.0000 </r>
       <r>  -37.5251    1.0000 </r>
       <r>  -37.5251    1.0000 </r>
       <r>  -37.5251    1.0000 </r>
       <r>   -8.9320    1.0000 </r>
       <r>   -8.9297    1.0000 </r>
       <r>   -8.2134    1.0000 </r>
       <r>   -8.2103    1.0000 </r>
       <r>   -8.2103    1.0000 </r>
       <r>   -8.2099    1.0000 </r>
       <r>   -8.2096    1.0000 </r>
       <r>   -8.2093    1.0000 </r>
       <r>   -8.2093    1.0000 </r>
       <r>   -8.2062    1.0000 </r>
       <r>   -7.7924    1.0000 </r>
       <r>   -7.7899    1.0000 </r>
       <r>   -7.7890    1.0000 </r>
       <r>   -7.7890    1.0000 </r>
       <r>   -7.7890    1.0000 </r>
       <r>   -7.7890    1.0000 </r>
       <r>   -7.7881    1.0000 </r>
       <r>   -7.7857    1.0000 </r>
       <r>   -7.6894    1.0000 </r>
       <r>   -7.6876    1.0000 </r>
       <r>   -7.4594    1.0000 </r>
       <r>   -7.4564    1.0000 </r>
       <r>   -7.4564    1.0000 </r>
       <r>   -7.4562    1.0000 </r>
       <r>   -7.4558    1.0000 </r>
       <r>   -7.4556    1.0000 </r>
       <r>   -7.4556    1.0000 </r>
       <r>   -7.4526    1.0000 </r>
       <r>   -7.3354    1.0000 </r>
       <r>   -7.3333    1.0000 </r>
       <r>   -7.3332    1.0000 </r>
       <r>   -7.3310    1.0000 </r>
       <r>   -0.9004    1.0000 </r>
       <r>   -0.9004    1.0000 </r>
       <r>   -0.9002    1.0000 </r>
       <r>   -0.8992    1.0000 </r>
       <r>   -0.8987    1.0000 </r>
       <r>   -0.8977    1.0000 </r>
       <r>   -0.8976    1.0000 </r>
       <r>   -0.8976    1.0000 </r>
       <r>   -0.4387    1.0000 </r>
       <r>   -0.4387    1.0000 </r>
       <r>   -0.4365    1.0000 </r>
       <r>   -0.4365    1.0000 </r>
       <r>   -0.2059    1.0000 </r>
       <r>   -0.2034    1.0000 </r>
       <r>   -0.1827    1.0000 </r>
       <r>   -0.1803    1.0000 </r>
       <r>   -0.1800    1.0000 </r>
       <r>   -0.1800    1.0000 </r>
       <r>   -0.1796    1.0000 </r>
       <r>   -0.1796    1.0000 </r>
       <r>   -0.1792    1.0000 </r>
       <r>   -0.1766    1.0000 </r>
       <r>    0.4972    1.0000 </r>
       <r>    0.4972    1.0000 </r>
       <r>    0.4981    1.0000 </r>
       <r>    0.4982    1.0000 </r>
       <r>    0.4982    1.0000 </r>
       <r>    0.4983    1.0000 </r>
       <r>    0.4991    1.0000 </r>
       <r>    0.4991    1.0000 </r>
       <r>    0.5402    1.0000 </r>
       <r>    0.5402    1.0000 </r>
       <r>    0.5408    1.0000 </r>
       <r>    0.5413    1.0000 </r>
       <r>    0.5421    1.0000 </r>
       <r>    0.5425    1.0000 </r>
       <r>    0.5433    1.0000 </r>
       <r>    0.5433    1.0000 </r>
       <r>    1.3166    1.0000 </r>
       <r>    1.3166    1.0000 </r>
       <r>    1.3179    1.0000 </r>
       <r>    1.3179    1.0000 </r>
       <r>    1.5300    1.0000 </r>
       <r>    1.5324    1.0000 </r>
       <r>    1.5327    1.0000 </r>
       <r>    1.5350    1.0000 </r>
       <r>    2.1169    1.0000 </r>
       <r>    2.1169    1.0000 </r>
       <r>    2.1190    1.0000 </r>
       <r>    2.1190    1.0000 </r>
       <r>    2.1426    1.0000 </r>
       <r>    2.1426    1.0000 </r>
       <r>    2.1433    1.0000 </r>
       <r>    2.1434    1.0000 </r>
       <r>    2.1441    1.0000 </r>
       <r>    2.1442    1.0000 </r>
       <r>    2.1446    1.0000 </r>
       <r>    2.1446    1.0000 </r>
       <r>    2.1519    1.0000 </r>
       <r>    2.1524    1.0000 </r>
       <r>    2.1524    1.0000 </r>
       <r>    2.1528    1.0000 </r>
       <r>    2.1529    1.0000 </r>
       <r>    2.1537    1.0000 </r>
       <r>    2.1537    1.0000 </r>
       <r>    2.1537    1.0000 </r>
       <r>    2.2446    1.0000 </r>
       <r>    2.2472    1.0000 </r>
       <r>    2.2475    1.0000 </r>
       <r>    2.2475    1.0000 </r>
       <r>    2.2479    1.0000 </r>
       <r>    2.2479    1.0000 </r>
       <r>    2.2481    1.0000 </r>
       <r>    2.2508    1.0000 </r>
       <r>    2.6367    1.0000 </r>
       <r>    2.6388    1.0000 </r>
       <r>    2.9578    1.0000 </r>
       <r>    2.9607    1.0000 </r>
       <r>    2.9613    1.0000 </r>
       <r>    2.9613    1.0000 </r>
       <r>    2.9614    1.0000 </r>
       <r>    2.9614    1.0000 </r>
       <r>    2.9621    1.0000 </r>
       <r>    2.9651    1.0000 </r>
       <r>    3.0261    1.0000 </r>
       <r>    3.0261    1.0000 </r>
       <r>    3.0281    1.0000 </r>
       <r>    3.0281    1.0000 </r>
       <r>    3.0281    1.0000 </r>
       <r>    3.0282    1.0000 </r>
       <r>    3.0301    1.0000 </r>
       <r>    3.0301    1.0000 </r>
       <r>    3.3331    1.0000 </r>
       <r>    3.3331    1.0000 </r>
       <r>    3.3348    1.0000 </r>
       <r>    3.3348    1.0000 </r>
       <r>    7.0790    0.0000 </r>
       <r>    7.0803    0.0000 </r>
       <r>    7.4770    0.0000 </r>
       <r>    7.4777    0.0000 </r>
       <r>    7.4783    0.0000 </r>
       <r>    7.4790    0.0000 </r>
       <r>    8.1671    0.0000 </r>
       <r>    8.1695    0.0000 </r>
       <r>    8.6136    0.0000 </r>
       <r>    8.6144    0.0000 </r>
       <r>    8.9138    0.0000 </r>
       <r>    8.9141    0.0000 </r>
       <r>    8.9141    0.0000 </r>
       <r>    8.9141    0.0000 </r>
       <r>    8.9143    0.0000 </r>
       <r>    8.9143    0.0000 </r>
       <r>    8.9143    0.0000 </r>
       <r>    8.9147    0.0000 </r>
       <r>    8.9342    0.0000 </r>
       <r>    8.9342    0.0000 </r>
       <r>    8.9346    0.0000 </r>
       <r>    8.9346    0.0000 </r>
       <r>    8.9361    0.0000 </r>
       <r>    8.9361    0.0000 </r>
       <r>    8.9366    0.0000 </r>
       <r>    8.9366    0.0000 </r>
       <r>    8.9950    0.0000 </r>
       <r>    8.9950    0.0000 </r>
       <r>    8.9977    0.0000 </r>
       <r>    8.9977    0.0000 </r>
       <r>    9.5076    0.0000 </r>
       <r>    9.5081    0.0000 </r>
       <r>    9.5081    0.0000 </r>
       <r>    9.5085    0.0000 </r>
       <r>    9.5088    0.0000 </r>
       <r>    9.5092    0.0000 </r>
       <r>    9.5092    0.0000 </r>
       <r>    9.5097    0.0000 </r>
       <r>   10.0245    0.0000 </r>
       <r>   10.0260    0.0000 </r>
       <r>   10.0282    0.0000 </r>
       <r>   10.0330    0.0000 </r>
       <r>   10.0394    0.0000 </r>
       <r>   10.0618    0.0000 </r>
      </set>
      <set comment="kpoint 3">
       <r>  -37.5336    1.0000 </r>
       <r>  -37.5335    1.0000 </r>
       <r>  -37.5332    1.0000 </r>
       <r>  -37.5332    1.0000 </r>
       <r>  -37.5331    1.0000 </r>
       <r>  -37.5331    1.0000 </r>
       <r>  -37.5330    1.0000 </r>
       <r>  -37.5328    1.0000 </r>
       <r>  -37.5327    1.0000 </r>
       <r>  -37.5326    1.0000 </r>
       <r>  -37.5326    1.0000 </r>
       <r>  -37.5323    1.0000 </r>
       <r>  -37.5323    1.0000 </r>
       <r>  -37.5322    1.0000 </r>
       <r>  -37.5316    1.0000 </r>
       <r>  -37.5314    1.0000 </r>
       <r>  -37.5314    1.0000 </r>
       <r>  -37.5313    1.0000 </r>
       <r>  -37.5313    1.0000 </r>
       <r>  -37.5312    1.0000 </r>
       <r>  -37.5310    1.0000 </r>
       <r>  -37.5308    1.0000 </r>
       <r>  -37.5307    1.0000 </r>
       <r>  -37.5306    1.0000 </r>
       <r>  -37.5305    1.0000 </r>
       <r>  -37.5305    1.0000 </r>
       <r>  -37.5305    1.0000 </r>
       <r>  -37.5305    1.0000 </r>
       <r>  -37.5303    1.0000 </r>
       <r>  -37.5303    1.0000 </r>
       <r>  -37.5302    1.0000 </r>
       <r>  -37.5302    1.0000 </r>
       <r>  -37.5302    1.0000 </r>
       <r>  -37.5301    1.0000 </r>
       <r>  -37.5301    1.0000 </r>
       <r>  -37.5300    1.0000 </r>
       <r>  -37.5300    1.0000 </r>
       <r>  -37.5300    1.0000 </r>
       <r>  -37.5297    1.0000 </r>
       <r>  -37.5295    1.0000 </r>
       <r>  -37.5294    1.0000 </r>
       <r>  -37.5294    1.0000 </r>
       <r>  -37.5292    1.0000 </r>
       <r>  -37.5290    1.0000 </r>
       <r>  -37.5288    1.0000 </r>
       <r>  -37.5288    1.0000 </r>
       <r>  -37.5287    1.0000 </r>
       <r>  -37.5287    1.0000 </r>
       <r>  -37.5285    1.0000 </r>
       <r>  -37.5285    1.0000 </r>
       <r>  -37.5282    1.0000 </r>
       <r>  -37.5282    1.0000 </r>
       <r>  -37.5282    1.0000 </r>
       <r>  -37.5281    1.0000 </r>
       <r>  -37.5280    1.0000 </r>
       <r>  -37.5280    1.0000 </r>
       <r>  -37.5280    1.0000 </r>
       <r>  -37.5278    1.0000 </r>
       <r>  -37.5277    1.0000 </r>
       <r>  -37.5277    1.0000 </r>
       <r>  -37.5277    1.0000 </r>
       <r>  -37.5276    1.0000 </r>
       <r>  -37.5276    1.0000 </r>
       <r>  -37.5276    1.0000 </r>
       <r>  -37.5275    1.0000 </r>
       <r>  -37.5275    1.0000 </r>
       <r>  -37.5275    1.0000 </r>
       <r>  -37.5274    1.0000 </r>
       <r>  -37.5274    1.0000 </r>
       <r>  -37.5274    1.0000 </r>
       <r>  -37.5274    1.0000 </r>
       <r>  -37.5273    1.0000 </r>
       <r>  -37.5273    1.0000 </r>
       <r>  -37.5272    1.0000 </r>
       <r>  -37.5271    1.0000 </r>
       <r>  -37.5270    1.0000 </r>
       <r>  -37.5269    1.0000 </r>
       <r>  -37.5268    1.0000 </r>
       <r>  -37.5267    1.0000 </r>
       <r>  -37.5267    1.0000 </r>
       <r>  -37.5267    1.0000 </r>
       <r>  -37.5267    1.0000 </r>
       <r>  -37.5266    1.0000 </r>
       <r>  -37.5265    1.0000 </r>
       <r>  -37.5262    1.0000 </r>
       <r>  -37.5262    1.0000 </r>
       <r>  -37.5262    1.0000 </r>
       <r>  -37.5260    1.0000 </r>
       <r>  -37.5260    1.0000 </r>
       <r>  -37.5259    1.0000 </r>
       <r>  -37.5257    1.0000 </r>
       <r>  -37.5255    1.0000 </r>
       <r>  -37.5255    1.0000 </r>
       <r>  -37.5253    1.0000 </r>
       <r>  -37.5253    1.0000 </r>
       <r>  -37.5253    1.0000 </r>
       <r>   -8.9308    1.0000 </r>
       <r>   -8.9308    1.0000 </r>
       <r>   -8.2134    1.0000 </r>
       <r>   -8.2099    1.0000 </r>
       <r>   -8.2098    1.0000 </r>
       <r>   -8.2098    1.0000 </r>
       <r>   -8.2098    1.0000 </r>
       <r>   -8.2098    1.0000 </r>
       <r>   -8.2096    1.0000 </r>
       <r>   -8.2063    1.0000 </r>
       <r>   -7.7894    1.0000 </r>
       <r>   -7.7891    1.0000 </r>
       <r>   -7.7890    1.0000 </r>
       <r>   -7.7890    1.0000 </r>
       <r>   -7.7890    1.0000 </r>
       <r>   -7.7890    1.0000 </r>
       <r>   -7.7889    1.0000 </r>
       <r>   -7.7888    1.0000 </r>
       <r>   -7.6885    1.0000 </r>
       <r>   -7.6884    1.0000 </r>
       <r>   -7.4595    1.0000 </r>
       <r>   -7.4562    1.0000 </r>
       <r>   -7.4560    1.0000 </r>
       <r>   -7.4560    1.0000 </r>
       <r>   -7.4560    1.0000 </r>
       <r>   -7.4560    1.0000 </r>
       <r>   -7.4558    1.0000 </r>
       <r>   -7.4525    1.0000 </r>
       <r>   -7.3332    1.0000 </r>
       <r>   -7.3332    1.0000 </r>
       <r>   -7.3332    1.0000 </r>
       <r>   -7.3331    1.0000 </r>
       <r>   -0.8993    1.0000 </r>
       <r>   -0.8991    1.0000 </r>
       <r>   -0.8991    1.0000 </r>
       <r>   -0.8990    1.0000 </r>
       <r>   -0.8989    1.0000 </r>
       <r>   -0.8989    1.0000 </r>
       <r>   -0.8989    1.0000 </r>
       <r>   -0.8987    1.0000 </r>
       <r>   -0.4376    1.0000 </r>
       <r>   -0.4376    1.0000 </r>
       <r>   -0.4376    1.0000 </r>
       <r>   -0.4376    1.0000 </r>
       <r>   -0.2047    1.0000 </r>
       <r>   -0.2045    1.0000 </r>
       <r>   -0.1819    1.0000 </r>
       <r>   -0.1799    1.0000 </r>
       <r>   -0.1798    1.0000 </r>
       <r>   -0.1798    1.0000 </r>
       <r>   -0.1798    1.0000 </r>
       <r>   -0.1798    1.0000 </r>
       <r>   -0.1796    1.0000 </r>
       <r>   -0.1774    1.0000 </r>
       <r>    0.4972    1.0000 </r>
       <r>    0.4976    1.0000 </r>
       <r>    0.4978    1.0000 </r>
       <r>    0.4981    1.0000 </r>
       <r>    0.4982    1.0000 </r>
       <r>    0.4982    1.0000 </r>
       <r>    0.4988    1.0000 </r>
       <r>    0.4992    1.0000 </r>
       <r>    0.5405    1.0000 </r>
       <r>    0.5416    1.0000 </r>
       <r>    0.5417    1.0000 </r>
       <r>    0.5417    1.0000 </r>
       <r>    0.5417    1.0000 </r>
       <r>    0.5418    1.0000 </r>
       <r>    0.5421    1.0000 </r>
       <r>    0.5429    1.0000 </r>
       <r>    1.3172    1.0000 </r>
       <r>    1.3172    1.0000 </r>
       <r>    1.3172    1.0000 </r>
       <r>    1.3172    1.0000 </r>
       <r>    1.5325    1.0000 </r>
       <r>    1.5326    1.0000 </r>
       <r>    1.5326    1.0000 </r>
       <r>    1.5326    1.0000 </r>
       <r>    2.1178    1.0000 </r>
       <r>    2.1179    1.0000 </r>
       <r>    2.1180    1.0000 </r>
       <r>    2.1180    1.0000 </r>
       <r>    2.1422    1.0000 </r>
       <r>    2.1427    1.0000 </r>
       <r>    2.1434    1.0000 </r>
       <r>    2.1436    1.0000 </r>
       <r>    2.1437    1.0000 </r>
       <r>    2.1437    1.0000 </r>
       <r>    2.1439    1.0000 </r>
       <r>    2.1446    1.0000 </r>
       <r>    2.1520    1.0000 </r>
       <r>    2.1521    1.0000 </r>
       <r>    2.1528    1.0000 </r>
       <r>    2.1529    1.0000 </r>
       <r>    2.1534    1.0000 </r>
       <r>    2.1536    1.0000 </r>
       <r>    2.1536    1.0000 </r>
       <r>    2.1545    1.0000 </r>
       <r>    2.2474    1.0000 </r>
       <r>    2.2475    1.0000 </r>
       <r>    2.2476    1.0000 </r>
       <r>    2.2476    1.0000 </r>
       <r>    2.2477    1.0000 </r>
       <r>    2.2478    1.0000 </r>
       <r>    2.2480    1.0000 </r>
       <r>    2.2480    1.0000 </r>
       <r>    2.6377    1.0000 </r>
       <r>    2.6377    1.0000 </r>
       <r>    2.9593    1.0000 </r>
       <r>    2.9612    1.0000 </r>
       <r>    2.9614    1.0000 </r>
       <r>    2.9614    1.0000 </r>
       <r>    2.9614    1.0000 </r>
       <r>    2.9614    1.0000 </r>
       <r>    2.9616    1.0000 </r>
       <r>    2.9635    1.0000 </r>
       <r>    3.0279    1.0000 </r>
       <r>    3.0281    1.0000 </r>
       <r>    3.0281    1.0000 </r>
       <r>    3.0281    1.0000 </r>
       <r>    3.0281    1.0000 </r>
       <r>    3.0281    1.0000 </r>
       <r>    3.0281    1.0000 </r>
       <r>    3.0284    1.0000 </r>
       <r>    3.3340    1.0000 </r>
       <r>    3.3340    1.0000 </r>
       <r>    3.3340    1.0000 </r>
       <r>    3.3340    1.0000 </r>
       <r>    7.0797    0.0000 </r>
       <r>    7.0797    0.0000 </r>
       <r>    7.4780    0.0000 </r>
       <r>    7.4780    0.0000 </r>
       <r>    7.4780    0.0000 </r>
       <r>    7.4780    0.0000 </r>
       <r>    8.1683    0.0000 </r>
       <r>    8.1683    0.0000 </r>
       <r>    8.6140    0.0000 </r>
       <r>    8.6140    0.0000 </r>
       <r>    8.9136    0.0000 </r>
       <r>    8.9136    0.0000 </r>
       <r>    8.9142    0.0000 </r>
       <r>    8.9142    0.0000 </r>
       <r>    8.9142    0.0000 </r>
       <r>    8.9142    0.0000 </r>
       <r>    8.9148    0.0000 </r>
       <r>    8.9148    0.0000 </r>
       <r>    8.9352    0.0000 </r>
       <r>    8.9352    0.0000 </r>
       <r>    8.9352    0.0000 </r>
       <r>    8.9352    0.0000 </r>
       <r>    8.9356    0.0000 </r>
       <r>    8.9356    0.0000 </r>
       <r>    8.9356    0.0000 </r>
       <r>    8.9357    0.0000 </r>
       <r>    8.9963    0.0000 </r>
       <r>    8.9963    0.0000 </r>
       <r>    8.9964    0.0000 </r>
       <r>    8.9965    0.0000 </r>
       <r>    9.5077    0.0000 </r>
       <r>    9.5085    0.0000 </r>
       <r>    9.5086    0.0000 </r>
       <r>    9.5086    0.0000 </r>
       <r>    9.5086    0.0000 </r>
       <r>    9.5086    0.0000 </r>
       <r>    9.5088    0.0000 </r>
       <r>    9.5096    0.0000 </r>
       <r>   10.0249    0.0000 </r>
       <r>   10.0256    0.0000 </r>
       <r>   10.0268    0.0000 </r>
       <r>   10.0283    0.0000 </r>
       <r>   10.0367    0.0000 </r>
       <r>   10.0478    0.0000 </r>
      </set>
      <set comment="kpoint 4">
       <r>  -37.5335    1.0000 </r>
       <r>  -37.5334    1.0000 </r>
       <r>  -37.5331    1.0000 </r>
       <r>  -37.5330    1.0000 </r>
       <r>  -37.5330    1.0000 </r>
       <r>  -37.5329    1.0000 </r>
       <r>  -37.5328    1.0000 </r>
       <r>  -37.5325    1.0000 </r>
       <r>  -37.5325    1.0000 </r>
       <r>  -37.5325    1.0000 </r>
       <r>  -37.5324    1.0000 </r>
       <r>  -37.5322    1.0000 </r>
       <r>  -37.5321    1.0000 </r>
       <r>  -37.5321    1.0000 </r>
       <r>  -37.5317    1.0000 </r>
       <r>  -37.5317    1.0000 </r>
       <r>  -37.5317    1.0000 </r>
       <r>  -37.5317    1.0000 </r>
       <r>  -37.5315    1.0000 </r>
       <r>  -37.5314    1.0000 </r>
       <r>  -37.5314    1.0000 </r>
       <r>  -37.5313    1.0000 </r>
       <r>  -37.5313    1.0000 </r>
       <r>  -37.5313    1.0000 </r>
       <r>  -37.5312    1.0000 </r>
       <r>  -37.5309    1.0000 </r>
       <r>  -37.5309    1.0000 </r>
       <r>  -37.5308    1.0000 </r>
       <r>  -37.5304    1.0000 </r>
       <r>  -37.5303    1.0000 </r>
       <r>  -37.5302    1.0000 </r>
       <r>  -37.5300    1.0000 </r>
       <r>  -37.5299    1.0000 </r>
       <r>  -37.5296    1.0000 </r>
       <r>  -37.5294    1.0000 </r>
       <r>  -37.5293    1.0000 </r>
       <r>  -37.5293    1.0000 </r>
       <r>  -37.5293    1.0000 </r>
       <r>  -37.5292    1.0000 </r>
       <r>  -37.5291    1.0000 </r>
       <r>  -37.5290    1.0000 </r>
       <r>  -37.5290    1.0000 </r>
       <r>  -37.5288    1.0000 </r>
       <r>  -37.5286    1.0000 </r>
       <r>  -37.5286    1.0000 </r>
       <r>  -37.5286    1.0000 </r>
       <r>  -37.5286    1.0000 </r>
       <r>  -37.5285    1.0000 </r>
       <r>  -37.5284    1.0000 </r>
       <r>  -37.5284    1.0000 </r>
       <r>  -37.5283    1.0000 </r>
       <r>  -37.5283    1.0000 </r>
       <r>  -37.5283    1.0000 </r>
       <r>  -37.5282    1.0000 </r>
       <r>  -37.5282    1.0000 </r>
       <r>  -37.5281    1.0000 </r>
       <r>  -37.5281    1.0000 </r>
       <r>  -37.5280    1.0000 </r>
       <r>  -37.5279    1.0000 </r>
       <r>  -37.5279    1.0000 </r>
       <r>  -37.5279    1.0000 </r>
       <r>  -37.5278    1.0000 </r>
       <r>  -37.5277    1.0000 </r>
       <r>  -37.5277    1.0000 </r>
       <r>  -37.5277    1.0000 </r>
       <r>  -37.5275    1.0000 </r>
       <r>  -37.5275    1.0000 </r>
       <r>  -37.5273    1.0000 </r>
       <r>  -37.5273    1.0000 </r>
       <r>  -37.5272    1.0000 </r>
       <r>  -37.5272    1.0000 </r>
       <r>  -37.5272    1.0000 </r>
       <r>  -37.5271    1.0000 </r>
       <r>  -37.5271    1.0000 </r>
       <r>  -37.5271    1.0000 </r>
       <r>  -37.5270    1.0000 </r>
       <r>  -37.5270    1.0000 </r>
       <r>  -37.5270    1.0000 </r>
       <r>  -37.5270    1.0000 </r>
       <r>  -37.5268    1.0000 </r>
       <r>  -37.5267    1.0000 </r>
       <r>  -37.5267    1.0000 </r>
       <r>  -37.5266    1.0000 </r>
       <r>  -37.5263    1.0000 </r>
       <r>  -37.5262    1.0000 </r>
       <r>  -37.5262    1.0000 </r>
       <r>  -37.5261    1.0000 </r>
       <r>  -37.5260    1.0000 </r>
       <r>  -37.5259    1.0000 </r>
       <r>  -37.5258    1.0000 </r>
       <r>  -37.5256    1.0000 </r>
       <r>  -37.5254    1.0000 </r>
       <r>  -37.5253    1.0000 </r>
       <r>  -37.5252    1.0000 </r>
       <r>  -37.5252    1.0000 </r>
       <r>  -37.5251    1.0000 </r>
       <r>   -8.7338    1.0000 </r>
       <r>   -8.7321    1.0000 </r>
       <r>   -8.7315    1.0000 </r>
       <r>   -8.7299    1.0000 </r>
       <r>   -8.0851    1.0000 </r>
       <r>   -8.0823    1.0000 </r>
       <r>   -8.0821    1.0000 </r>
       <r>   -8.0818    1.0000 </r>
       <r>   -8.0816    1.0000 </r>
       <r>   -8.0812    1.0000 </r>
       <r>   -8.0811    1.0000 </r>
       <r>   -8.0784    1.0000 </r>
       <r>   -7.6146    1.0000 </r>
       <r>   -7.6117    1.0000 </r>
       <r>   -7.6116    1.0000 </r>
       <r>   -7.6113    1.0000 </r>
       <r>   -7.6112    1.0000 </r>
       <r>   -7.6108    1.0000 </r>
       <r>   -7.6107    1.0000 </r>
       <r>   -7.6082    1.0000 </r>
       <r>   -7.5428    1.0000 </r>
       <r>   -7.5401    1.0000 </r>
       <r>   -7.5401    1.0000 </r>
       <r>   -7.5397    1.0000 </r>
       <r>   -7.5396    1.0000 </r>
       <r>   -7.5393    1.0000 </r>
       <r>   -7.5392    1.0000 </r>
       <r>   -7.5363    1.0000 </r>
       <r>   -7.3579    1.0000 </r>
       <r>   -7.3563    1.0000 </r>
       <r>   -7.3558    1.0000 </r>
       <r>   -7.3541    1.0000 </r>
       <r>   -0.8034    1.0000 </r>
       <r>   -0.8032    1.0000 </r>
       <r>   -0.8027    1.0000 </r>
       <r>   -0.8018    1.0000 </r>
       <r>   -0.8017    1.0000 </r>
       <r>   -0.8008    1.0000 </r>
       <r>   -0.8003    1.0000 </r>
       <r>   -0.8001    1.0000 </r>
       <r>   -0.2315    1.0000 </r>
       <r>   -0.2308    1.0000 </r>
       <r>   -0.2292    1.0000 </r>
       <r>   -0.2289    1.0000 </r>
       <r>   -0.2287    1.0000 </r>
       <r>   -0.2284    1.0000 </r>
       <r>   -0.2270    1.0000 </r>
       <r>   -0.2266    1.0000 </r>
       <r>   -0.2154    1.0000 </r>
       <r>   -0.2145    1.0000 </r>
       <r>   -0.2142    1.0000 </r>
       <r>   -0.2139    1.0000 </r>
       <r>   -0.2139    1.0000 </r>
       <r>   -0.2131    1.0000 </r>
       <r>   -0.2131    1.0000 </r>
       <r>   -0.2127    1.0000 </r>
       <r>   -0.1844    1.0000 </r>
       <r>   -0.1830    1.0000 </r>
       <r>   -0.1823    1.0000 </r>
       <r>   -0.1807    1.0000 </r>
       <r>    0.3540    1.0000 </r>
       <r>    0.3545    1.0000 </r>
       <r>    0.3551    1.0000 </r>
       <r>    0.3556    1.0000 </r>
       <r>    1.4308    1.0000 </r>
       <r>    1.4315    1.0000 </r>
       <r>    1.4322    1.0000 </r>
       <r>    1.4323    1.0000 </r>
       <r>    1.4326    1.0000 </r>
       <r>    1.4327    1.0000 </r>
       <r>    1.4334    1.0000 </r>
       <r>    1.4341    1.0000 </r>
       <r>    1.5339    1.0000 </r>
       <r>    1.5360    1.0000 </r>
       <r>    1.5363    1.0000 </r>
       <r>    1.5365    1.0000 </r>
       <r>    1.5366    1.0000 </r>
       <r>    1.5368    1.0000 </r>
       <r>    1.5372    1.0000 </r>
       <r>    1.5392    1.0000 </r>
       <r>    1.6677    1.0000 </r>
       <r>    1.6678    1.0000 </r>
       <r>    1.6687    1.0000 </r>
       <r>    1.6688    1.0000 </r>
       <r>    2.0091    1.0000 </r>
       <r>    2.0098    1.0000 </r>
       <r>    2.0109    1.0000 </r>
       <r>    2.0111    1.0000 </r>
       <r>    2.0112    1.0000 </r>
       <r>    2.0114    1.0000 </r>
       <r>    2.0125    1.0000 </r>
       <r>    2.0132    1.0000 </r>
       <r>    2.2483    1.0000 </r>
       <r>    2.2489    1.0000 </r>
       <r>    2.2505    1.0000 </r>
       <r>    2.2511    1.0000 </r>
       <r>    2.4637    1.0000 </r>
       <r>    2.4645    1.0000 </r>
       <r>    2.4650    1.0000 </r>
       <r>    2.4653    1.0000 </r>
       <r>    2.4655    1.0000 </r>
       <r>    2.4659    1.0000 </r>
       <r>    2.4664    1.0000 </r>
       <r>    2.4671    1.0000 </r>
       <r>    2.7079    1.0000 </r>
       <r>    2.7087    1.0000 </r>
       <r>    2.7087    1.0000 </r>
       <r>    2.7092    1.0000 </r>
       <r>    2.7093    1.0000 </r>
       <r>    2.7097    1.0000 </r>
       <r>    2.7098    1.0000 </r>
       <r>    2.7105    1.0000 </r>
       <r>    2.8397    1.0000 </r>
       <r>    2.8409    1.0000 </r>
       <r>    2.8423    1.0000 </r>
       <r>    2.8424    1.0000 </r>
       <r>    2.8424    1.0000 </r>
       <r>    2.8424    1.0000 </r>
       <r>    2.8439    1.0000 </r>
       <r>    2.8452    1.0000 </r>
       <r>    2.9217    1.0000 </r>
       <r>    2.9227    1.0000 </r>
       <r>    2.9233    1.0000 </r>
       <r>    2.9243    1.0000 </r>
       <r>    3.5588    1.0000 </r>
       <r>    3.5594    1.0000 </r>
       <r>    3.5610    1.0000 </r>
       <r>    3.5616    1.0000 </r>
       <r>    7.5273    0.0000 </r>
       <r>    7.5273    0.0000 </r>
       <r>    7.5287    0.0000 </r>
       <r>    7.5288    0.0000 </r>
       <r>    8.0262    0.0000 </r>
       <r>    8.0268    0.0000 </r>
       <r>    8.0268    0.0000 </r>
       <r>    8.0270    0.0000 </r>
       <r>    8.0276    0.0000 </r>
       <r>    8.0277    0.0000 </r>
       <r>    8.0278    0.0000 </r>
       <r>    8.0284    0.0000 </r>
       <r>    8.8874    0.0000 </r>
       <r>    8.8885    0.0000 </r>
       <r>    8.8895    0.0000 </r>
       <r>    8.8895    0.0000 </r>
       <r>    8.8896    0.0000 </r>
       <r>    8.8896    0.0000 </r>
       <r>    8.8906    0.0000 </r>
       <r>    8.8917    0.0000 </r>
       <r>    9.1084    0.0000 </r>
       <r>    9.1091    0.0000 </r>
       <r>    9.1093    0.0000 </r>
       <r>    9.1099    0.0000 </r>
       <r>    9.2358    0.0000 </r>
       <r>    9.2358    0.0000 </r>
       <r>    9.2359    0.0000 </r>
       <r>    9.2361    0.0000 </r>
       <r>    9.2366    0.0000 </r>
       <r>    9.2367    0.0000 </r>
       <r>    9.2367    0.0000 </r>
       <r>    9.2369    0.0000 </r>
       <r>    9.2676    0.0000 </r>
       <r>    9.2681    0.0000 </r>
       <r>    9.2696    0.0000 </r>
       <r>    9.2698    0.0000 </r>
       <r>    9.2704    0.0000 </r>
       <r>    9.2706    0.0000 </r>
       <r>    9.2721    0.0000 </r>
       <r>    9.2726    0.0000 </r>
       <r>    9.7133    0.0000 </r>
       <r>    9.7141    0.0000 </r>
       <r>    9.7149    0.0000 </r>
       <r>    9.7151    0.0000 </r>
      </set>
      <set comment="kpoint 5">
       <r>  -37.5335    1.0000 </r>
       <r>  -37.5334    1.0000 </r>
       <r>  -37.5334    1.0000 </r>
       <r>  -37.5333    1.0000 </r>
       <r>  -37.5328    1.0000 </r>
       <r>  -37.5328    1.0000 </r>
       <r>  -37.5328    1.0000 </r>
       <r>  -37.5326    1.0000 </r>
       <r>  -37.5325    1.0000 </r>
       <r>  -37.5321    1.0000 </r>
       <r>  -37.5321    1.0000 </r>
       <r>  -37.5319    1.0000 </r>
       <r>  -37.5319    1.0000 </r>
       <r>  -37.5319    1.0000 </r>
       <r>  -37.5319    1.0000 </r>
       <r>  -37.5318    1.0000 </r>
       <r>  -37.5318    1.0000 </r>
       <r>  -37.5318    1.0000 </r>
       <r>  -37.5318    1.0000 </r>
       <r>  -37.5317    1.0000 </r>
       <r>  -37.5313    1.0000 </r>
       <r>  -37.5313    1.0000 </r>
       <r>  -37.5313    1.0000 </r>
       <r>  -37.5312    1.0000 </r>
       <r>  -37.5312    1.0000 </r>
       <r>  -37.5311    1.0000 </r>
       <r>  -37.5311    1.0000 </r>
       <r>  -37.5308    1.0000 </r>
       <r>  -37.5301    1.0000 </r>
       <r>  -37.5301    1.0000 </r>
       <r>  -37.5300    1.0000 </r>
       <r>  -37.5300    1.0000 </r>
       <r>  -37.5299    1.0000 </r>
       <r>  -37.5297    1.0000 </r>
       <r>  -37.5296    1.0000 </r>
       <r>  -37.5294    1.0000 </r>
       <r>  -37.5294    1.0000 </r>
       <r>  -37.5292    1.0000 </r>
       <r>  -37.5292    1.0000 </r>
       <r>  -37.5289    1.0000 </r>
       <r>  -37.5288    1.0000 </r>
       <r>  -37.5288    1.0000 </r>
       <r>  -37.5288    1.0000 </r>
       <r>  -37.5288    1.0000 </r>
       <r>  -37.5288    1.0000 </r>
       <r>  -37.5288    1.0000 </r>
       <r>  -37.5288    1.0000 </r>
       <r>  -37.5288    1.0000 </r>
       <r>  -37.5287    1.0000 </r>
       <r>  -37.5287    1.0000 </r>
       <r>  -37.5283    1.0000 </r>
       <r>  -37.5283    1.0000 </r>
       <r>  -37.5283    1.0000 </r>
       <r>  -37.5282    1.0000 </r>
       <r>  -37.5281    1.0000 </r>
       <r>  -37.5281    1.0000 </r>
       <r>  -37.5281    1.0000 </r>
       <r>  -37.5281    1.0000 </r>
       <r>  -37.5281    1.0000 </r>
       <r>  -37.5281    1.0000 </r>
       <r>  -37.5277    1.0000 </r>
       <r>  -37.5276    1.0000 </r>
       <r>  -37.5276    1.0000 </r>
       <r>  -37.5276    1.0000 </r>
       <r>  -37.5274    1.0000 </r>
       <r>  -37.5274    1.0000 </r>
       <r>  -37.5273    1.0000 </r>
       <r>  -37.5273    1.0000 </r>
       <r>  -37.5272    1.0000 </r>
       <r>  -37.5272    1.0000 </r>
       <r>  -37.5271    1.0000 </r>
       <r>  -37.5271    1.0000 </r>
       <r>  -37.5269    1.0000 </r>
       <r>  -37.5269    1.0000 </r>
       <r>  -37.5269    1.0000 </r>
       <r>  -37.5269    1.0000 </r>
       <r>  -37.5269    1.0000 </r>
       <r>  -37.5269    1.0000 </r>
       <r>  -37.5269    1.0000 </r>
       <r>  -37.5268    1.0000 </r>
       <r>  -37.5268    1.0000 </r>
       <r>  -37.5267    1.0000 </r>
       <r>  -37.5267    1.0000 </r>
       <r>  -37.5266    1.0000 </r>
       <r>  -37.5266    1.0000 </r>
       <r>  -37.5264    1.0000 </r>
       <r>  -37.5264    1.0000 </r>
       <r>  -37.5264    1.0000 </r>
       <r>  -37.5263    1.0000 </r>
       <r>  -37.5258    1.0000 </r>
       <r>  -37.5258    1.0000 </r>
       <r>  -37.5256    1.0000 </r>
       <r>  -37.5251    1.0000 </r>
       <r>  -37.5250    1.0000 </r>
       <r>  -37.5250    1.0000 </r>
       <r>  -37.5250    1.0000 </r>
       <r>   -8.7319    1.0000 </r>
       <r>   -8.7318    1.0000 </r>
       <r>   -8.7318    1.0000 </r>
       <r>   -8.7318    1.0000 </r>
       <r>   -8.0823    1.0000 </r>
       <r>   -8.0817    1.0000 </r>
       <r>   -8.0817    1.0000 </r>
       <r>   -8.0817    1.0000 </r>
       <r>   -8.0817    1.0000 </r>
       <r>   -8.0817    1.0000 </r>
       <r>   -8.0817    1.0000 </r>
       <r>   -8.0812    1.0000 </r>
       <r>   -7.6119    1.0000 </r>
       <r>   -7.6112    1.0000 </r>
       <r>   -7.6112    1.0000 </r>
       <r>   -7.6112    1.0000 </r>
       <r>   -7.6112    1.0000 </r>
[...]
      </set>
     </set>
    </set>
   </array>
  </eigenvalues>
  <separator name="orbital magnetization" >
   <v name="MAGDIPOLOUT">      0.00000000      0.00000000      0.00000000</v>
  </separator>
  <dos>
   <i name="efermi">      3.81476638 </i>
   <total>
    <array>
     <dimension dim="1">gridpoints</dimension>
     <dimension dim="2">spin</dimension>
     <field>energy</field>
     <field>total</field>
     <field>integrated</field>
     <set>
      <set comment="spin 1">
       <r>   -39.9376     0.0000     0.0000 </r>
       <r>   -39.7614     0.0000     0.0000 </r>
       <r>   -39.5851     0.0000     0.0000 </r>
       <r>   -39.4089     0.0000     0.0000 </r>
       <r>   -39.2326     0.0000     0.0000 </r>
       <r>   -39.0564     0.0000     0.0000 </r>
       <r>   -38.8801     0.0000     0.0000 </r>
       <r>   -38.7039     0.0000     0.0000 </r>
       <r>   -38.5277     0.0000     0.0000 </r>
       <r>   -38.3514     0.0000     0.0000 </r>
       <r>   -38.1752     0.0000     0.0000 </r>
       <r>   -37.9989     0.0000     0.0000 </r>
       <r>   -37.8227     0.0000     0.0000 </r>
       <r>   -37.6464     0.0000     0.0000 </r>
       <r>   -37.4702  1089.4040   192.0000 </r>
       <r>   -37.2939     0.0000   192.0000 </r>
       <r>   -37.1177     0.0000   192.0000 </r>
       <r>   -36.9415     0.0000   192.0000 </r>
       <r>   -36.7652     0.0000   192.0000 </r>
       <r>   -36.5890     0.0000   192.0000 </r>
       <r>   -36.4127     0.0000   192.0000 </r>
       <r>   -36.2365     0.0000   192.0000 </r>
       <r>   -36.0602     0.0000   192.0000 </r>
       <r>   -35.8840     0.0000   192.0000 </r>
       <r>   -35.7078     0.0000   192.0000 </r>
       <r>   -35.5315     0.0000   192.0000 </r>
       <r>   -35.3553     0.0000   192.0000 </r>
       <r>   -35.1790     0.0000   192.0000 </r>
       <r>   -35.0028     0.0000   192.0000 </r>
       <r>   -34.8265     0.0000   192.0000 </r>
       <r>   -34.6503     0.0000   192.0000 </r>
       <r>   -34.4741     0.0000   192.0000 </r>
       <r>   -34.2978     0.0000   192.0000 </r>
       <r>   -34.1216     0.0000   192.0000 </r>
       <r>   -33.9453     0.0000   192.0000 </r>
       <r>   -33.7691     0.0000   192.0000 </r>
       <r>   -33.5928     0.0000   192.0000 </r>
       <r>   -33.4166     0.0000   192.0000 </r>
       <r>   -33.2404     0.0000   192.0000 </r>
       <r>   -33.0641     0.0000   192.0000 </r>
       <r>   -32.8879     0.0000   192.0000 </r>
       <r>   -32.7116     0.0000   192.0000 </r>
       <r>   -32.5354     0.0000   192.0000 </r>
       <r>   -32.3591     0.0000   192.0000 </r>
       <r>   -32.1829     0.0000   192.0000 </r>
       <r>   -32.0067     0.0000   192.0000 </r>
       <r>   -31.8304     0.0000   192.0000 </r>
       <r>   -31.6542     0.0000   192.0000 </r>
       <r>   -31.4779     0.0000   192.0000 </r>
       <r>   -31.3017     0.0000   192.0000 </r>
       <r>   -31.1254     0.0000   192.0000 </r>
       <r>   -30.9492     0.0000   192.0000 </r>
       <r>   -30.7730     0.0000   192.0000 </r>
       <r>   -30.5967     0.0000   192.0000 </r>
       <r>   -30.4205     0.0000   192.0000 </r>
       <r>   -30.2442     0.0000   192.0000 </r>
       <r>   -30.0680     0.0000   192.0000 </r>
       <r>   -29.8917     0.0000   192.0000 </r>
       <r>   -29.7155     0.0000   192.0000 </r>
       <r>   -29.5393     0.0000   192.0000 </r>
       <r>   -29.3630     0.0000   192.0000 </r>
       <r>   -29.1868     0.0000   192.0000 </r>
       <r>   -29.0105     0.0000   192.0000 </r>
       <r>   -28.8343     0.0000   192.0000 </r>
       <r>   -28.6580     0.0000   192.0000 </r>
       <r>   -28.4818     0.0000   192.0000 </r>
       <r>   -28.3055     0.0000   192.0000 </r>
       <r>   -28.1293     0.0000   192.0000 </r>
       <r>   -27.9531     0.0000   192.0000 </r>
       <r>   -27.7768     0.0000   192.0000 </r>
       <r>   -27.6006     0.0000   192.0000 </r>
       <r>   -27.4243     0.0000   192.0000 </r>
       <r>   -27.2481     0.0000   192.0000 </r>
       <r>   -27.0718     0.0000   192.0000 </r>
       <r>   -26.8956     0.0000   192.0000 </r>
       <r>   -26.7194     0.0000   192.0000 </r>
       <r>   -26.5431     0.0000   192.0000 </r>
       <r>   -26.3669     0.0000   192.0000 </r>
       <r>   -26.1906     0.0000   192.0000 </r>
       <r>   -26.0144     0.0000   192.0000 </r>
       <r>   -25.8381     0.0000   192.0000 </r>
       <r>   -25.6619     0.0000   192.0000 </r>
       <r>   -25.4857     0.0000   192.0000 </r>
       <r>   -25.3094     0.0000   192.0000 </r>
       <r>   -25.1332     0.0000   192.0000 </r>
       <r>   -24.9569     0.0000   192.0000 </r>
       <r>   -24.7807     0.0000   192.0000 </r>
       <r>   -24.6044     0.0000   192.0000 </r>
       <r>   -24.4282     0.0000   192.0000 </r>
       <r>   -24.2520     0.0000   192.0000 </r>
       <r>   -24.0757     0.0000   192.0000 </r>
       <r>   -23.8995     0.0000   192.0000 </r>
       <r>   -23.7232     0.0000   192.0000 </r>
       <r>   -23.5470     0.0000   192.0000 </r>
       <r>   -23.3707     0.0000   192.0000 </r>
       <r>   -23.1945     0.0000   192.0000 </r>
       <r>   -23.0183     0.0000   192.0000 </r>
       <r>   -22.8420     0.0000   192.0000 </r>
       <r>   -22.6658     0.0000   192.0000 </r>
       <r>   -22.4895     0.0000   192.0000 </r>
       <r>   -22.3133     0.0000   192.0000 </r>
       <r>   -22.1370     0.0000   192.0000 </r>
       <r>   -21.9608     0.0000   192.0000 </r>
       <r>   -21.7846     0.0000   192.0000 </r>
       <r>   -21.6083     0.0000   192.0000 </r>
       <r>   -21.4321     0.0000   192.0000 </r>
       <r>   -21.2558     0.0000   192.0000 </r>
       <r>   -21.0796     0.0000   192.0000 </r>
       <r>   -20.9033     0.0000   192.0000 </r>
       <r>   -20.7271     0.0000   192.0000 </r>
       <r>   -20.5508     0.0000   192.0000 </r>
       <r>   -20.3746     0.0000   192.0000 </r>
       <r>   -20.1984     0.0000   192.0000 </r>
       <r>   -20.0221     0.0000   192.0000 </r>
       <r>   -19.8459     0.0000   192.0000 </r>
       <r>   -19.6696     0.0000   192.0000 </r>
       <r>   -19.4934     0.0000   192.0000 </r>
       <r>   -19.3171     0.0000   192.0000 </r>
       <r>   -19.1409     0.0000   192.0000 </r>
       <r>   -18.9647     0.0000   192.0000 </r>
       <r>   -18.7884     0.0000   192.0000 </r>
       <r>   -18.6122     0.0000   192.0000 </r>
       <r>   -18.4359     0.0000   192.0000 </r>
       <r>   -18.2597     0.0000   192.0000 </r>
       <r>   -18.0834     0.0000   192.0000 </r>
       <r>   -17.9072     0.0000   192.0000 </r>
       <r>   -17.7310     0.0000   192.0000 </r>
       <r>   -17.5547     0.0000   192.0000 </r>
       <r>   -17.3785     0.0000   192.0000 </r>
       <r>   -17.2022     0.0000   192.0000 </r>
       <r>   -17.0260     0.0000   192.0000 </r>
       <r>   -16.8497     0.0000   192.0000 </r>
       <r>   -16.6735     0.0000   192.0000 </r>
       <r>   -16.4973     0.0000   192.0000 </r>
       <r>   -16.3210     0.0000   192.0000 </r>
       <r>   -16.1448     0.0000   192.0000 </r>
       <r>   -15.9685     0.0000   192.0000 </r>
       <r>   -15.7923     0.0000   192.0000 </r>
       <r>   -15.6160     0.0000   192.0000 </r>
       <r>   -15.4398     0.0000   192.0000 </r>
       <r>   -15.2636     0.0000   192.0000 </r>
       <r>   -15.0873     0.0000   192.0000 </r>
       <r>   -14.9111     0.0000   192.0000 </r>
       <r>   -14.7348     0.0000   192.0000 </r>
       <r>   -14.5586     0.0000   192.0000 </r>
       <r>   -14.3823     0.0000   192.0000 </r>
       <r>   -14.2061     0.0000   192.0000 </r>
       <r>   -14.0299     0.0000   192.0000 </r>
       <r>   -13.8536     0.0000   192.0000 </r>
       <r>   -13.6774     0.0000   192.0000 </r>
       <r>   -13.5011     0.0000   192.0000 </r>
       <r>   -13.3249     0.0000   192.0000 </r>
       <r>   -13.1486     0.0000   192.0000 </r>
       <r>   -12.9724     0.0000   192.0000 </r>
       <r>   -12.7962     0.0000   192.0000 </r>
       <r>   -12.6199     0.0000   192.0000 </r>
       <r>   -12.4437     0.0000   192.0000 </r>
       <r>   -12.2674     0.0000   192.0000 </r>
       <r>   -12.0912     0.0000   192.0000 </r>
       <r>   -11.9149     0.0000   192.0000 </r>
       <r>   -11.7387     0.0000   192.0000 </r>
       <r>   -11.5624     0.0000   192.0000 </r>
       <r>   -11.3862     0.0000   192.0000 </r>
       <r>   -11.2100     0.0000   192.0000 </r>
       <r>   -11.0337     0.0000   192.0000 </r>
       <r>   -10.8575     0.0000   192.0000 </r>
       <r>   -10.6812     0.0000   192.0000 </r>
       <r>   -10.5050     0.0000   192.0000 </r>
       <r>   -10.3287     0.0000   192.0000 </r>
       <r>   -10.1525     0.0000   192.0000 </r>
       <r>    -9.9763     0.0000   192.0000 </r>
       <r>    -9.8000     0.0000   192.0000 </r>
       <r>    -9.6238     0.0000   192.0000 </r>
       <r>    -9.4475     0.0000   192.0000 </r>
       <r>    -9.2713     0.0000   192.0000 </r>
       <r>    -9.0950     1.4185   192.2500 </r>
       <r>    -8.9188     8.1260   193.6821 </r>
       <r>    -8.7426     1.1401   193.9509 </r>
       <r>    -8.5663     0.1039   196.7683 </r>
       <r>    -8.3901     0.0016   198.7503 </r>
       <r>    -8.2138     9.8655   201.9887 </r>
       <r>    -8.0376    34.0439   212.2500 </r>
       <r>    -7.8613     0.0004   212.2501 </r>
       <r>    -7.6851    11.4912   223.2752 </r>
       <r>    -7.5089    68.0874   241.7499 </r>
       <r>    -7.3326    30.3408   253.0974 </r>
       <r>    -7.1564     0.0000   256.0000 </r>
       <r>    -6.9801     0.0000   256.0000 </r>
       <r>    -6.8039     0.0000   256.0000 </r>
       <r>    -6.6276     0.0000   256.0000 </r>
       <r>    -6.4514     0.0000   256.0000 </r>
       <r>    -6.2752     0.0000   256.0000 </r>
       <r>    -6.0989     0.0000   256.0000 </r>
       <r>    -5.9227     0.0000   256.0000 </r>
       <r>    -5.7464     0.0000   256.0000 </r>
       <r>    -5.5702     0.0000   256.0000 </r>
       <r>    -5.3939     0.0000   256.0000 </r>
       <r>    -5.2177     0.0000   256.0000 </r>
       <r>    -5.0415     0.0000   256.0000 </r>
       <r>    -4.8652     0.0000   256.0000 </r>
       <r>    -4.6890     0.0000   256.0000 </r>
       <r>    -4.5127     0.0000   256.0000 </r>
       <r>    -4.3365     0.0000   256.0000 </r>
       <r>    -4.1602     0.0000   256.0000 </r>
       <r>    -3.9840     0.0000   256.0000 </r>
       <r>    -3.8078     0.0000   256.0000 </r>
       <r>    -3.6315     0.0000   256.0000 </r>
       <r>    -3.4553     0.0000   256.0000 </r>
       <r>    -3.2790     0.0000   256.0000 </r>
       <r>    -3.1028     0.0000   256.0000 </r>
       <r>    -2.9265     0.0000   256.0000 </r>
       <r>    -2.7503     0.0000   256.0000 </r>
       <r>    -2.5740     0.0000   256.0000 </r>
       <r>    -2.3978     0.0000   256.0000 </r>
       <r>    -2.2216     0.0000   256.0000 </r>
       <r>    -2.0453     0.0000   256.0000 </r>
       <r>    -1.8691     0.0000   256.0000 </r>
       <r>    -1.6928     0.0000   256.0000 </r>
       <r>    -1.5166     0.0000   256.0000 </r>
       <r>    -1.3403     3.5333   256.6227 </r>
       <r>    -1.1641     0.0000   257.0000 </r>
       <r>    -0.9879     0.0000   257.0000 </r>
       <r>    -0.8116     2.8382   263.5002 </r>
       <r>    -0.6354     4.2555   269.7500 </r>
       <r>    -0.4591    34.0642   275.7536 </r>
       <r>    -0.2829     0.0000   278.7500 </r>
       <r>    -0.1066    68.0878   304.2500 </r>
       <r>     0.0696     0.0000   304.2500 </r>
       <r>     0.2458     0.0000   304.2500 </r>
       <r>     0.4221    17.0219   310.2500 </r>
       <r>     0.5983    34.0439   322.2500 </r>
       <r>     0.7746     8.2415   323.7025 </r>
       <r>     0.9508     0.0000   324.2500 </r>
       <r>     1.1271     0.0000   325.7500 </r>
       <r>     1.3033    17.4404   330.3238 </r>
       <r>     1.4795    34.0439   345.2500 </r>
       <r>     1.6558     0.6659   354.3674 </r>
       <r>     1.8320     0.0000   357.2500 </r>
       <r>     2.0083    11.6911   360.8105 </r>
       <r>     2.1845    85.1095   379.7500 </r>
       <r>     2.3608     0.0000   388.7500 </r>
       <r>     2.5370    34.0439   400.7500 </r>
       <r>     2.7132    49.8802   409.5410 </r>
       <r>     2.8895    34.0439   417.2500 </r>
       <r>     3.0657    62.2999   437.2299 </r>
       <r>     3.2420     0.0000   437.2500 </r>
       <r>     3.4182     0.0000   444.2500 </r>
       <r>     3.5945    17.0219   447.2500 </r>
       <r>     3.7707     0.0000   448.0000 </r>
       <r>     3.9469     0.0000   448.0000 </r>
       <r>     4.1232     0.0000   448.0000 </r>
       <r>     4.2994     0.0000   448.0000 </r>
       <r>     4.4757     0.0000   448.0000 </r>
       <r>     4.6519     0.0000   448.0000 </r>
       <r>     4.8282     0.0000   448.0000 </r>
       <r>     5.0044     0.0000   448.0000 </r>
       <r>     5.1807     0.0000   448.0000 </r>
       <r>     5.3569     0.0000   448.0000 </r>
       <r>     5.5331     0.0000   448.0000 </r>
       <r>     5.7094     0.0000   448.0000 </r>
       <r>     5.8856     0.0000   448.0000 </r>
       <r>     6.0619     0.0000   448.0000 </r>
       <r>     6.2381     0.0000   448.0000 </r>
       <r>     6.4144     0.0207   448.0037 </r>
       <r>     6.5906     0.0000   448.7500 </r>
       <r>     6.7668     0.0000   448.7500 </r>
       <r>     6.9431     0.0000   448.7500 </r>
       <r>     7.1193     8.5110   450.2500 </r>
       <r>     7.2956     0.0000   450.2500 </r>
       <r>     7.4718     4.6608   451.0714 </r>
       <r>     7.6481     0.0000   456.5000 </r>
       <r>     7.8243     0.0030   456.5005 </r>
       <r>     8.0005     0.0068   457.2512 </r>
       <r>     8.1768    13.2007   471.5765 </r>
       <r>     8.3530     0.0000   471.7500 </r>
       <r>     8.5293     0.0000   471.7500 </r>
       <r>     8.7055     5.1608   476.1596 </r>
       <r>     8.8818     4.6650   477.5722 </r>
       <r>     9.0580    25.5329   499.2500 </r>
       <r>     9.2342    13.1140   506.0612 </r>
       <r>     9.4105     0.0000   518.7500 </r>
       <r>     9.5867    34.0439   524.7500 </r>
       <r>     9.7630    17.0219   527.7500 </r>
       <r>     9.9392     0.0000   527.7500 </r>
       <r>    10.1155     8.5110   532.2500 </r>
       <r>    10.2917     0.0000   532.2500 </r>
       <r>    10.4679     0.0000   535.2500 </r>
       <r>    10.6442     0.0000   536.0000 </r>
       <r>    10.8204     0.0000   536.0000 </r>
       <r>    10.9967     0.0000   536.0000 </r>
       <r>    11.1729     0.0000   536.0000 </r>
       <r>    11.3492     0.0000   536.0000 </r>
       <r>    11.5254     0.0000   536.0000 </r>
       <r>    11.7016     0.0000   536.0000 </r>
       <r>    11.8779     0.0000   536.0000 </r>
       <r>    12.0541     0.0000   536.0000 </r>
       <r>    12.2304     0.0000   536.0000 </r>
       <r>    12.4066     0.0000   536.0000 </r>
       <r>    12.5829     0.0000   536.0000 </r>
       <r>    12.7591     0.0000   536.0000 </r>
       <r>    12.9353     0.0000   536.0000 </r>
      </set>
     </set>
    </array>
   </total>
  </dos>
 </calculation>
 <structure name="finalpos" >
  <crystal>
   <varray name="basis" >
    <v>      10.32729006       0.00000000       0.00000000 </v>
    <v>       0.00000000      10.32729006       0.00000000 </v>
    <v>       0.00000000       0.00000000      10.32729006 </v>
   </varray>
   <i name="volume">   1101.43564041 </i>
   <varray name="rec_basis" >
    <v>       0.09683082       0.00000000       0.00000000 </v>
    <v>       0.00000000       0.09683082       0.00000000 </v>
    <v>       0.00000000       0.00000000       0.09683082 </v>
   </varray>
  </crystal>
  <varray name="positions" >
   <v>       0.00096831       0.00000000       0.00000000 </v>
   <v>       0.50000000       0.00000000       0.00000000 </v>
   <v>       0.00000000       0.50000000       0.00000000 </v>
   <v>       0.50000000       0.50000000       0.00000000 </v>
   <v>       0.00000000       0.00000000       0.50000000 </v>
   <v>       0.50000000       0.00000000       0.50000000 </v>
   <v>       0.00000000       0.50000000       0.50000000 </v>
   <v>       0.50000000       0.50000000       0.50000000 </v>
   <v>       0.00000000       0.25000000       0.25000000 </v>
   <v>       0.50000000       0.25000000       0.25000000 </v>
   <v>       0.00000000       0.75000000       0.25000000 </v>
   <v>       0.50000000       0.75000000       0.25000000 </v>
   <v>       0.00000000       0.25000000       0.75000000 </v>
   <v>       0.50000000       0.25000000       0.75000000 </v>
   <v>       0.00000000       0.75000000       0.75000000 </v>
   <v>       0.50000000       0.75000000       0.75000000 </v>
   <v>       0.25000000       0.00000000       0.25000000 </v>
   <v>       0.75000000       0.00000000       0.25000000 </v>
   <v>       0.25000000       0.50000000       0.25000000 </v>
   <v>       0.75000000       0.50000000       0.25000000 </v>
   <v>       0.25000000       0.00000000       0.75000000 </v>
   <v>       0.75000000       0.00000000       0.75000000 </v>
   <v>       0.25000000       0.50000000       0.75000000 </v>
   <v>       0.75000000       0.50000000       0.75000000 </v>
   <v>       0.25000000       0.25000000       0.00000000 </v>
   <v>       0.75000000       0.25000000       0.00000000 </v>
   <v>       0.25000000       0.75000000       0.00000000 </v>
   <v>       0.75000000       0.75000000       0.00000000 </v>
   <v>       0.25000000       0.25000000       0.50000000 </v>
   <v>       0.75000000       0.25000000       0.50000000 </v>
   <v>       0.25000000       0.75000000       0.50000000 </v>
   <v>       0.75000000       0.75000000       0.50000000 </v>
   <v>       0.25000000       0.00000000       0.00000000 </v>
   <v>       0.75000000       0.00000000       0.00000000 </v>
   <v>       0.25000000       0.50000000       0.00000000 </v>
   <v>       0.75000000       0.50000000       0.00000000 </v>
   <v>       0.25000000       0.00000000       0.50000000 </v>
   <v>       0.75000000       0.00000000       0.50000000 </v>
   <v>       0.25000000       0.50000000       0.50000000 </v>
   <v>       0.75000000       0.50000000       0.50000000 </v>
   <v>       0.25000000       0.25000000       0.25000000 </v>
   <v>       0.75000000       0.25000000       0.25000000 </v>
   <v>       0.25000000       0.75000000       0.25000000 </v>
   <v>       0.75000000       0.75000000       0.25000000 </v>
   <v>       0.25000000       0.25000000       0.75000000 </v>
   <v>       0.75000000       0.25000000       0.75000000 </v>
   <v>       0.25000000       0.75000000       0.75000000 </v>
   <v>       0.75000000       0.75000000       0.75000000 </v>
   <v>       0.00000000       0.00000000       0.25000000 </v>
   <v>       0.50000000       0.00000000       0.25000000 </v>
   <v>       0.00000000       0.50000000       0.25000000 </v>
   <v>       0.50000000       0.50000000       0.25000000 </v>
   <v>       0.00000000       0.00000000       0.75000000 </v>
   <v>       0.50000000       0.00000000       0.75000000 </v>
   <v>       0.00000000       0.50000000       0.75000000 </v>
   <v>       0.50000000       0.50000000       0.75000000 </v>
   <v>       0.00000000       0.25000000       0.00000000 </v>
   <v>       0.50000000       0.25000000       0.00000000 </v>
   <v>       0.00000000       0.75000000       0.00000000 </v>
   <v>       0.50000000       0.75000000       0.00000000 </v>
   <v>       0.00000000       0.25000000       0.50000000 </v>
   <v>       0.50000000       0.25000000       0.50000000 </v>
   <v>       0.00000000       0.75000000       0.50000000 </v>
   <v>       0.50000000       0.75000000       0.50000000 </v>
  </varray>
 </structure>
</modeling>
