  64  64   0   0
  0.1755761E+02  0.1039637E-08  0.1039637E-08  0.1039637E-08  0.5000000E-15
  1.000000000000000E-004
  CAR 
 unknown system                          
     12.73705216    -40.15599541  301      3.61300145      1.00000000
    -40.156  0.0000E+00  0.0000E+00
    -39.980  0.0000E+00  0.0000E+00
    -39.803  0.0000E+00  0.0000E+00
    -39.627  0.0000E+00  0.0000E+00
    -39.451  0.0000E+00  0.0000E+00
    -39.274  0.0000E+00  0.0000E+00
    -39.098  0.0000E+00  0.0000E+00
    -38.922  0.0000E+00  0.0000E+00
    -38.746  0.0000E+00  0.0000E+00
    -38.569  0.0000E+00  0.0000E+00
    -38.393  0.0000E+00  0.0000E+00
    -38.217  0.0000E+00  0.0000E+00
    -38.040  0.0000E+00  0.0000E+00
    -37.864  0.0000E+00  0.0000E+00
    -37.688  0.1089E+04  0.1920E+03
    -37.511  0.0000E+00  0.1920E+03
    -37.335  0.0000E+00  0.1920E+03
    -37.159  0.0000E+00  0.1920E+03
    -36.982  0.0000E+00  0.1920E+03
    -36.806  0.0000E+00  0.1920E+03
    -36.630  0.0000E+00  0.1920E+03
    -36.453  0.0000E+00  0.1920E+03
    -36.277  0.0000E+00  0.1920E+03
    -36.101  0.0000E+00  0.1920E+03
    -35.925  0.0000E+00  0.1920E+03
    -35.748  0.0000E+00  0.1920E+03
    -35.572  0.0000E+00  0.1920E+03
    -35.396  0.0000E+00  0.1920E+03
    -35.219  0.0000E+00  0.1920E+03
    -35.043  0.0000E+00  0.1920E+03
    -34.867  0.0000E+00  0.1920E+03
    -34.690  0.0000E+00  0.1920E+03
    -34.514  0.0000E+00  0.1920E+03
    -34.338  0.0000E+00  0.1920E+03
    -34.161  0.0000E+00  0.1920E+03
    -33.985  0.0000E+00  0.1920E+03
    -33.809  0.0000E+00  0.1920E+03
    -33.633  0.0000E+00  0.1920E+03
    -33.456  0.0000E+00  0.1920E+03
    -33.280  0.0000E+00  0.1920E+03
    -33.104  0.0000E+00  0.1920E+03
    -32.927  0.0000E+00  0.1920E+03
    -32.751  0.0000E+00  0.1920E+03
    -32.575  0.0000E+00  0.1920E+03
    -32.398  0.0000E+00  0.1920E+03
    -32.222  0.0000E+00  0.1920E+03
    -32.046  0.0000E+00  0.1920E+03
    -31.869  0.0000E+00  0.1920E+03
    -31.693  0.0000E+00  0.1920E+03
    -31.517  0.0000E+00  0.1920E+03
    -31.340  0.0000E+00  0.1920E+03
    -31.164  0.0000E+00  0.1920E+03
    -30.988  0.0000E+00  0.1920E+03
    -30.812  0.0000E+00  0.1920E+03
    -30.635  0.0000E+00  0.1920E+03
    -30.459  0.0000E+00  0.1920E+03
    -30.283  0.0000E+00  0.1920E+03
    -30.106  0.0000E+00  0.1920E+03
    -29.930  0.0000E+00  0.1920E+03
    -29.754  0.0000E+00  0.1920E+03
    -29.577  0.0000E+00  0.1920E+03
    -29.401  0.0000E+00  0.1920E+03
    -29.225  0.0000E+00  0.1920E+03
    -29.048  0.0000E+00  0.1920E+03
    -28.872  0.0000E+00  0.1920E+03
    -28.696  0.0000E+00  0.1920E+03
    -28.520  0.0000E+00  0.1920E+03
    -28.343  0.0000E+00  0.1920E+03
    -28.167  0.0000E+00  0.1920E+03
    -27.991  0.0000E+00  0.1920E+03
    -27.814  0.0000E+00  0.1920E+03
    -27.638  0.0000E+00  0.1920E+03
    -27.462  0.0000E+00  0.1920E+03
    -27.285  0.0000E+00  0.1920E+03
    -27.109  0.0000E+00  0.1920E+03
    -26.933  0.0000E+00  0.1920E+03
    -26.756  0.0000E+00  0.1920E+03
    -26.580  0.0000E+00  0.1920E+03
    -26.404  0.0000E+00  0.1920E+03
    -26.227  0.0000E+00  0.1920E+03
    -26.051  0.0000E+00  0.1920E+03
    -25.875  0.0000E+00  0.1920E+03
    -25.699  0.0000E+00  0.1920E+03
    -25.522  0.0000E+00  0.1920E+03
    -25.346  0.0000E+00  0.1920E+03
    -25.170  0.0000E+00  0.1920E+03
    -24.993  0.0000E+00  0.1920E+03
    -24.817  0.0000E+00  0.1920E+03
    -24.641  0.0000E+00  0.1920E+03
    -24.464  0.0000E+00  0.1920E+03
    -24.288  0.0000E+00  0.1920E+03
    -24.112  0.0000E+00  0.1920E+03
    -23.935  0.0000E+00  0.1920E+03
    -23.759  0.0000E+00  0.1920E+03
    -23.583  0.0000E+00  0.1920E+03
    -23.407  0.0000E+00  0.1920E+03
    -23.230  0.0000E+00  0.1920E+03
    -23.054  0.0000E+00  0.1920E+03
    -22.878  0.0000E+00  0.1920E+03
    -22.701  0.0000E+00  0.1920E+03
    -22.525  0.0000E+00  0.1920E+03
    -22.349  0.0000E+00  0.1920E+03
    -22.172  0.0000E+00  0.1920E+03
    -21.996  0.0000E+00  0.1920E+03
    -21.820  0.0000E+00  0.1920E+03
    -21.643  0.0000E+00  0.1920E+03
    -21.467  0.0000E+00  0.1920E+03
    -21.291  0.0000E+00  0.1920E+03
    -21.114  0.0000E+00  0.1920E+03
    -20.938  0.0000E+00  0.1920E+03
    -20.762  0.0000E+00  0.1920E+03
    -20.586  0.0000E+00  0.1920E+03
    -20.409  0.0000E+00  0.1920E+03
    -20.233  0.0000E+00  0.1920E+03
    -20.057  0.0000E+00  0.1920E+03
    -19.880  0.0000E+00  0.1920E+03
    -19.704  0.0000E+00  0.1920E+03
    -19.528  0.0000E+00  0.1920E+03
    -19.351  0.0000E+00  0.1920E+03
    -19.175  0.0000E+00  0.1920E+03
    -18.999  0.0000E+00  0.1920E+03
    -18.822  0.0000E+00  0.1920E+03
    -18.646  0.0000E+00  0.1920E+03
    -18.470  0.0000E+00  0.1920E+03
    -18.294  0.0000E+00  0.1920E+03
    -18.117  0.0000E+00  0.1920E+03
    -17.941  0.0000E+00  0.1920E+03
    -17.765  0.0000E+00  0.1920E+03
    -17.588  0.0000E+00  0.1920E+03
    -17.412  0.0000E+00  0.1920E+03
    -17.236  0.0000E+00  0.1920E+03
    -17.059  0.0000E+00  0.1920E+03
    -16.883  0.0000E+00  0.1920E+03
    -16.707  0.0000E+00  0.1920E+03
    -16.530  0.0000E+00  0.1920E+03
    -16.354  0.0000E+00  0.1920E+03
    -16.178  0.0000E+00  0.1920E+03
    -16.002  0.0000E+00  0.1920E+03
    -15.825  0.0000E+00  0.1920E+03
    -15.649  0.0000E+00  0.1920E+03
    -15.473  0.0000E+00  0.1920E+03
    -15.296  0.0000E+00  0.1920E+03
    -15.120  0.0000E+00  0.1920E+03
    -14.944  0.0000E+00  0.1920E+03
    -14.767  0.0000E+00  0.1920E+03
    -14.591  0.0000E+00  0.1920E+03
    -14.415  0.0000E+00  0.1920E+03
    -14.238  0.0000E+00  0.1920E+03
    -14.062  0.0000E+00  0.1920E+03
    -13.886  0.0000E+00  0.1920E+03
    -13.709  0.0000E+00  0.1920E+03
    -13.533  0.0000E+00  0.1920E+03
    -13.357  0.0000E+00  0.1920E+03
    -13.181  0.0000E+00  0.1920E+03
    -13.004  0.0000E+00  0.1920E+03
    -12.828  0.0000E+00  0.1920E+03
    -12.652  0.0000E+00  0.1920E+03
    -12.475  0.0000E+00  0.1920E+03
    -12.299  0.0000E+00  0.1920E+03
    -12.123  0.0000E+00  0.1920E+03
    -11.946  0.0000E+00  0.1920E+03
    -11.770  0.0000E+00  0.1920E+03
    -11.594  0.0000E+00  0.1920E+03
    -11.417  0.0000E+00  0.1920E+03
    -11.241  0.0000E+00  0.1920E+03
    -11.065  0.0000E+00  0.1920E+03
    -10.889  0.0000E+00  0.1920E+03
    -10.712  0.0000E+00  0.1920E+03
    -10.536  0.0000E+00  0.1920E+03
    -10.360  0.0000E+00  0.1920E+03
    -10.183  0.0000E+00  0.1920E+03
    -10.007  0.0000E+00  0.1920E+03
     -9.831  0.0000E+00  0.1920E+03
     -9.654  0.0000E+00  0.1920E+03
     -9.478  0.0000E+00  0.1920E+03
     -9.302  0.0000E+00  0.1920E+03
     -9.125  0.1418E+01  0.1922E+03
     -8.949  0.8508E+01  0.1937E+03
     -8.773  0.1702E+02  0.1967E+03
     -8.596  0.1134E+02  0.1987E+03
     -8.420  0.8508E+01  0.2002E+03
     -8.244  0.3403E+02  0.2062E+03
     -8.068  0.0000E+00  0.2122E+03
     -7.891  0.4686E+02  0.2205E+03
     -7.715  0.3313E+02  0.2296E+03
     -7.539  0.3403E+02  0.2477E+03
     -7.362  0.8508E+01  0.2560E+03
     -7.186  0.0000E+00  0.2560E+03
     -7.010  0.0000E+00  0.2560E+03
     -6.833  0.0000E+00  0.2560E+03
     -6.657  0.0000E+00  0.2560E+03
     -6.481  0.0000E+00  0.2560E+03
     -6.304  0.0000E+00  0.2560E+03
     -6.128  0.0000E+00  0.2560E+03
     -5.952  0.0000E+00  0.2560E+03
     -5.776  0.0000E+00  0.2560E+03
     -5.599  0.0000E+00  0.2560E+03
     -5.423  0.0000E+00  0.2560E+03
     -5.247  0.0000E+00  0.2560E+03
     -5.070  0.0000E+00  0.2560E+03
     -4.894  0.0000E+00  0.2560E+03
     -4.718  0.0000E+00  0.2560E+03
     -4.541  0.0000E+00  0.2560E+03
     -4.365  0.0000E+00  0.2560E+03
     -4.189  0.0000E+00  0.2560E+03
     -4.012  0.0000E+00  0.2560E+03
     -3.836  0.0000E+00  0.2560E+03
     -3.660  0.0000E+00  0.2560E+03
     -3.483  0.0000E+00  0.2560E+03
     -3.307  0.0000E+00  0.2560E+03
     -3.131  0.0000E+00  0.2560E+03
     -2.955  0.0000E+00  0.2560E+03
     -2.778  0.0000E+00  0.2560E+03
     -2.602  0.0000E+00  0.2560E+03
     -2.426  0.0000E+00  0.2560E+03
     -2.249  0.0000E+00  0.2560E+03
     -2.073  0.0000E+00  0.2560E+03
     -1.897  0.0000E+00  0.2560E+03
     -1.720  0.0000E+00  0.2560E+03
     -1.544  0.0000E+00  0.2560E+03
     -1.368  0.5672E+01  0.2570E+03
     -1.191  0.0000E+00  0.2570E+03
     -1.015  0.6628E-05  0.2570E+03
     -0.839  0.3403E+02  0.2690E+03
     -0.663  0.4663E-10  0.2698E+03
     -0.486  0.1701E+02  0.2787E+03
     -0.310  0.5775E+02  0.2889E+03
     -0.134  0.0000E+00  0.3042E+03
      0.043  0.0000E+00  0.3042E+03
      0.219  0.1566E+02  0.3070E+03
      0.395  0.3390E+02  0.3162E+03
      0.572  0.0000E+00  0.3222E+03
      0.748  0.0000E+00  0.3242E+03
      0.924  0.8499E+01  0.3257E+03
      1.101  0.6073E+01  0.3268E+03
      1.277  0.5105E+02  0.3392E+03
      1.453  0.5105E+02  0.3542E+03
      1.630  0.0000E+00  0.3572E+03
      1.806  0.8438E+01  0.3587E+03
      1.982  0.8236E+01  0.3662E+03
      2.158  0.5105E+02  0.3887E+03
      2.335  0.6484E+02  0.4002E+03
      2.511  0.1698E+02  0.4037E+03
      2.687  0.8761E+01  0.4128E+03
      2.864  0.5082E+02  0.4292E+03
      3.040  0.0000E+00  0.4372E+03
      3.216  0.3970E+02  0.4442E+03
      3.393  0.1107E+02  0.4462E+03
      3.569  0.4254E+01  0.4480E+03
      3.745  0.0000E+00  0.4480E+03
      3.922  0.0000E+00  0.4480E+03
      4.098  0.0000E+00  0.4480E+03
      4.274  0.0000E+00  0.4480E+03
      4.450  0.0000E+00  0.4480E+03
      4.627  0.0000E+00  0.4480E+03
      4.803  0.0000E+00  0.4480E+03
      4.979  0.0000E+00  0.4480E+03
      5.156  0.0000E+00  0.4480E+03
      5.332  0.0000E+00  0.4480E+03
      5.508  0.0000E+00  0.4480E+03
      5.685  0.0000E+00  0.4480E+03
      5.861  0.0000E+00  0.4480E+03
      6.037  0.0000E+00  0.4480E+03
      6.214  0.1705E+01  0.4483E+03
      6.390  0.0000E+00  0.4488E+03
      6.566  0.0000E+00  0.4488E+03
      6.743  0.0000E+00  0.4488E+03
      6.919  0.8508E+01  0.4502E+03
      7.095  0.8494E-03  0.4503E+03
      7.271  0.1701E+02  0.4535E+03
      7.448  0.0000E+00  0.4565E+03
      7.624  0.0000E+00  0.4565E+03
      7.800  0.3401E+02  0.4625E+03
      7.977  0.5672E+01  0.4702E+03
      8.153  0.0000E+00  0.4718E+03
      8.329  0.9086E+01  0.4734E+03
      8.506  0.8508E+01  0.4768E+03
      8.682  0.3834E+02  0.4835E+03
      8.858  0.3118E+02  0.5017E+03
      9.035  0.4249E+02  0.5097E+03
      9.211  0.1031E-03  0.5188E+03
      9.387  0.0000E+00  0.5248E+03
      9.563  0.1702E+02  0.5278E+03
      9.740  0.0000E+00  0.5278E+03
      9.916  0.2552E+02  0.5322E+03
     10.092  0.7871E-16  0.5322E+03
     10.269  0.0000E+00  0.5352E+03
     10.445  0.0000E+00  0.5360E+03
     10.621  0.0000E+00  0.5360E+03
     10.798  0.0000E+00  0.5360E+03
     10.974  0.0000E+00  0.5360E+03
     11.150  0.0000E+00  0.5360E+03
     11.327  0.0000E+00  0.5360E+03
     11.503  0.0000E+00  0.5360E+03
     11.679  0.0000E+00  0.5360E+03
     11.856  0.0000E+00  0.5360E+03
     12.032  0.0000E+00  0.5360E+03
     12.208  0.0000E+00  0.5360E+03
     12.384  0.0000E+00  0.5360E+03
     12.561  0.0000E+00  0.5360E+03
     12.737  0.0000E+00  0.5360E+03
