       N       E                     dE             d eps       ncg     rms          rms(c)
DAV:   1     0.428635323504E+04    0.42864E+04   -0.26663E+05  3888   0.166E+03
DAV:   2     0.106595602180E+03   -0.41798E+04   -0.40287E+04  3808   0.429E+02
DAV:   3    -0.282291288022E+03   -0.38889E+03   -0.38510E+03  3912   0.119E+02
DAV:   4    -0.300912746022E+03   -0.18621E+02   -0.18555E+02  3664   0.220E+01
DAV:   5    -0.301752117153E+03   -0.83937E+00   -0.83873E+00  4048   0.472E+00    0.244E+01
DAV:   6    -0.291170234069E+03    0.10582E+02   -0.21474E+01  3564   0.702E+00    0.177E+01
DAV:   7    -0.289896597099E+03    0.12736E+01   -0.78333E+00  3768   0.399E+00    0.894E+00
DAV:   8    -0.289820738941E+03    0.75858E-01   -0.68679E-01  3492   0.169E+00    0.236E+00
DAV:   9    -0.289815867469E+03    0.48715E-02   -0.25854E-02  3712   0.334E-01    0.501E-01
DAV:  10    -0.289816323017E+03   -0.45555E-03   -0.63872E-03  3628   0.133E-01    0.226E-01
DAV:  11    -0.289816062113E+03    0.26090E-03   -0.10012E-03  3584   0.621E-02    0.228E-02
DAV:  12    -0.289816063996E+03   -0.18826E-05   -0.30698E-05  3684   0.111E-02    0.202E-02
DAV:  13    -0.289816066518E+03   -0.25225E-05   -0.74638E-06  3624   0.560E-03    0.550E-03
DAV:  14    -0.289816066279E+03    0.23967E-06   -0.16214E-06  3572   0.244E-03    0.238E-03
DAV:  15    -0.289816066020E+03    0.25850E-06   -0.51297E-08  3072   0.520E-04    0.234E-03
DAV:  16    -0.289816065931E+03    0.89167E-07   -0.87366E-08  2920   0.421E-04    0.160E-03
DAV:  17    -0.289816065886E+03    0.45504E-07   -0.45415E-08  2888   0.458E-04    0.171E-03
DAV:  18    -0.289816065941E+03   -0.55305E-07   -0.39735E-09  1948   0.128E-04    0.113E-03
DAV:  19    -0.289816066045E+03   -0.10439E-06   -0.42467E-09  1968   0.113E-04    0.164E-04
DAV:  20    -0.289816066092E+03   -0.47126E-07   -0.23440E-09  1936   0.866E-05    0.668E-04
DAV:  21    -0.289816066032E+03    0.60740E-07   -0.80002E-10  1944   0.617E-05    0.209E-04
DAV:  22    -0.289816065998E+03    0.33870E-07   -0.10668E-09  1928   0.423E-05    0.104E-04
DAV:  23    -0.289816066009E+03   -0.10979E-07   -0.25818E-10  1944   0.212E-05    0.474E-05
DAV:  24    -0.289816066015E+03   -0.63374E-08   -0.15309E-10  1928   0.921E-06
   1 F= -.28981607E+03 E0= -.28981607E+03  d E =-.127095E-57
