 vasp.5.3.5 31Mar14 (build Nov 07 2014 11:36:17) complex                        
  
 executed on             LinuxIFC date 2015.10.15  02:20:31
 running on   20 total cores
 distrk:  each k-point on   20 cores,    1 groups
 distr:  one band on NCORES_PER_BAND=   5 cores,    4 groups


--------------------------------------------------------------------------------------------------------


 INCAR:
 POTCAR:    PAW_PBE Mg_pv 13Apr2007               
 POTCAR:    PAW_PBE S 06Sep2000                   
 POTCAR:    PAW_PBE Mg_pv 13Apr2007               
   VRHFIN =Mg: p6s2                                                             
   LEXCH  = PE                                                                  
   EATOM  =  1056.7344 eV,   77.6678 Ry                                         
                                                                                
   TITEL  = PAW_PBE Mg_pv 13Apr2007                                             
   LULTRA =        F    use ultrasoft PP ?                                      
   IUNSCR =        1    unscreen: 0-lin 1-nonlin 2-no                           
   RPACOR =    1.500    partial core radius                                     
   POMASS =   24.305; ZVAL   =    8.000    mass and valenz                      
   RCORE  =    2.000    outmost cutoff radius                                   
   RWIGS  =    2.000; RWIGS  =    1.058    wigner-seitz radius (au A)           
   ENMAX  =  403.929; ENMIN  =  302.947 eV                                      
   RCLOC  =    1.506    cutoff for local pot                                    
   LCOR   =        T    correct aug charges                                     
   LPAW   =        T    paw PP                                                  
   EAUG   =  758.780                                                            
   DEXC   =    0.000                                                            
   RMAX   =    2.045    core radius for proj-oper                               
   RAUG   =    1.300    factor for augmentation sphere                          
   RDEP   =    2.025    radius for radial grids                                 
   RDEPT  =    1.557    core radius for aug-charge                              
                                                                                
   Atomic configuration                                                         
    5 entries                                                                   
     n  l   j            E        occ.                                          
     1  0  0.50     -1259.6230   2.0000                                         
     2  0  0.50       -79.8442   2.0000                                         
     2  1  1.50       -46.6121   6.0000                                         
     3  0  0.50        -4.7055   2.0000                                         
     3  2  1.50        -1.3606   0.0000                                         
   Description                                                                  
     l       E           TYP  RCUT    TYP  RCUT                                 
     1    -46.6121073     23  1.600                                             
     1      2.7211652     23  1.600                                             
     0     -4.7054661     23  2.000                                             
     0     61.2262170     23  2.000                                             
     2     -1.3605826     23  2.000                                             
  local pseudopotential read in
  partial core-charges read in
  partial kinetic energy density read in
  atomic valenz-charges read in
  non local Contribution for L=           1  read in
    real space projection operators read in
  non local Contribution for L=           1  read in
    real space projection operators read in
  non local Contribution for L=           0  read in
    real space projection operators read in
  non local Contribution for L=           0  read in
    real space projection operators read in
  non local Contribution for L=           2  read in
    real space projection operators read in
    PAW grid and wavefunctions read in
 
   number of l-projection  operators is LMAX  =           5
   number of lm-projection operators is LMMAX =          13
 
 POTCAR:    PAW_PBE S 06Sep2000                   
   VRHFIN =S : s2p4                                                             
   LEXCH  = PE                                                                  
   EATOM  =   276.8230 eV,   20.3459 Ry                                         
                                                                                
   TITEL  = PAW_PBE S 06Sep2000                                                 
   LULTRA =        F    use ultrasoft PP ?                                      
   IUNSCR =        1    unscreen: 0-lin 1-nonlin 2-no                           
   RPACOR =    1.500    partial core radius                                     
   POMASS =   32.066; ZVAL   =    6.000    mass and valenz                      
   RCORE  =    1.900    outmost cutoff radius                                   
   RWIGS  =    2.200; RWIGS  =    1.164    wigner-seitz radius (au A)           
   ENMAX  =  258.689; ENMIN  =  194.016 eV                                      
   ICORE  =        2    local potential                                         
   LCOR   =        T    correct aug charges                                     
   LPAW   =        T    paw PP                                                  
   EAUG   =  335.092                                                            
   DEXC   =    0.000                                                            
   RMAX   =    1.942    core radius for proj-oper                               
   RAUG   =    1.300    factor for augmentation sphere                          
   RDEP   =    1.954    radius for radial grids                                 
   RDEPT  =    1.744    core radius for aug-charge                              
                                                                                
   Atomic configuration                                                         
    6 entries                                                                   
     n  l   j            E        occ.                                          
     1  0  0.50     -2405.8406   2.0000                                         
     2  0  0.50      -211.7007   2.0000                                         
     2  1  1.50      -156.4958   6.0000                                         
     3  0  0.50       -17.2562   2.0000                                         
     3  1  0.50        -7.0085   4.0000                                         
     3  2  1.50        -6.8029   0.0000                                         
   Description                                                                  
     l       E           TYP  RCUT    TYP  RCUT                                 
     0    -17.2561641     23  1.900                                             
     0    -15.8743224     23  1.900                                             
     1     -7.0085400     23  1.900                                             
     1     -2.7779785     23  1.900                                             
     2     -6.8029130     23  1.900                                             
  local pseudopotential read in
  partial core-charges read in
  partial kinetic energy density read in
  atomic valenz-charges read in
  non local Contribution for L=           0  read in
    real space projection operators read in
  non local Contribution for L=           0  read in
    real space projection operators read in
  non local Contribution for L=           1  read in
    real space projection operators read in
  non local Contribution for L=           1  read in
    real space projection operators read in
    PAW grid and wavefunctions read in
 
   number of l-projection  operators is LMAX  =           4
   number of lm-projection operators is LMMAX =           8
 

 ----------------------------------------------------------------------------- 
|                                                                             |
|  ADVICE TO THIS USER RUNNING 'VASP/VAMP'   (HEAR YOUR MASTER'S VOICE ...):  |
|                                                                             |
|      You have a (more or less) 'large supercell' and for larger cells       |
|      it might be more efficient to use real space projection opertators     |
|      So try LREAL= Auto  in the INCAR   file.                               |
|      Mind: At the moment your POTCAR file does not contain real space       |
|       projectors, and has to be modified,  BUT if you                       |
|      want to do an extremely  accurate calculation you might also keep the  |
|      reciprocal projection scheme          (i.e. LREAL=.FALSE.)             |
|                                                                             |
 ----------------------------------------------------------------------------- 


 ----------------------------------------------------------------------------- 
|                                                                             |
|  ADVICE TO THIS USER RUNNING 'VASP/VAMP'   (HEAR YOUR MASTER'S VOICE ...):  |
|                                                                             |
|      You enforced a specific xc-type in the INCAR file,                     |
|      a different type was found on the POTCAR file                          |
|          I HOPE YOU KNOW, WHAT YOU ARE  DOING                               |
|                                                                             |
 ----------------------------------------------------------------------------- 

  PAW_PBE Mg_pv 13Apr2007               :
 energy of atom  1       EATOM=-1056.7344
 kinetic energy error for atom=    0.0336 (will be added to EATOM!!)
  PAW_PBE S 06Sep2000                   :
 energy of atom  2       EATOM= -276.8230
 kinetic energy error for atom=    0.0015 (will be added to EATOM!!)
 
 
 POSCAR:  Mg S                                   
  positions in direct lattice
  No initial velocities read in
 exchange correlation table for  LEXCH =       14
   RHO(1)=    0.500       N(1)  =     2000
   RHO(2)=  100.500       N(2)  =     4000
 


--------------------------------------------------------------------------------------------------------


 ion  position               nearest neighbor table
   1  0.001  0.000  0.000-  33 2.59  49 2.60  53 2.60  57 2.60  59 2.60  34 2.61
   2  0.500  0.000  0.000-  33 2.60  34 2.60  50 2.60  54 2.60  58 2.60  60 2.60
   3  0.000  0.500  0.000-  35 2.60  36 2.60  51 2.60  55 2.60  57 2.60  59 2.60
   4  0.500  0.500  0.000-  35 2.60  36 2.60  52 2.60  56 2.60  58 2.60  60 2.60
   5  0.000  0.000  0.500-  37 2.60  38 2.60  49 2.60  53 2.60  61 2.60  63 2.60
   6  0.500  0.000  0.500-  37 2.60  38 2.60  50 2.60  54 2.60  62 2.60  64 2.60
   7  0.000  0.500  0.500-  39 2.60  40 2.60  51 2.60  55 2.60  61 2.60  63 2.60
   8  0.500  0.500  0.500-  39 2.60  40 2.60  52 2.60  56 2.60  62 2.60  64 2.60
   9  0.000  0.250  0.250-  41 2.60  42 2.60  49 2.60  51 2.60  57 2.60  61 2.60
  10  0.500  0.250  0.250-  41 2.60  42 2.60  50 2.60  52 2.60  58 2.60  62 2.60
  11  0.000  0.750  0.250-  43 2.60  44 2.60  49 2.60  51 2.60  59 2.60  63 2.60
  12  0.500  0.750  0.250-  43 2.60  44 2.60  50 2.60  52 2.60  60 2.60  64 2.60
  13  0.000  0.250  0.750-  45 2.60  46 2.60  53 2.60  55 2.60  57 2.60  61 2.60
  14  0.500  0.250  0.750-  45 2.60  46 2.60  54 2.60  56 2.60  58 2.60  62 2.60
  15  0.000  0.750  0.750-  47 2.60  48 2.60  53 2.60  55 2.60  59 2.60  63 2.60
  16  0.500  0.750  0.750-  47 2.60  48 2.60  54 2.60  56 2.60  60 2.60  64 2.60
  17  0.250  0.000  0.250-  33 2.60  37 2.60  41 2.60  43 2.60  49 2.60  50 2.60
  18  0.750  0.000  0.250-  34 2.60  38 2.60  42 2.60  44 2.60  49 2.60  50 2.60
  19  0.250  0.500  0.250-  35 2.60  39 2.60  41 2.60  43 2.60  51 2.60  52 2.60
  20  0.750  0.500  0.250-  36 2.60  40 2.60  42 2.60  44 2.60  51 2.60  52 2.60
  21  0.250  0.000  0.750-  33 2.60  37 2.60  45 2.60  47 2.60  53 2.60  54 2.60
  22  0.750  0.000  0.750-  34 2.60  38 2.60  46 2.60  48 2.60  53 2.60  54 2.60
  23  0.250  0.500  0.750-  35 2.60  39 2.60  45 2.60  47 2.60  55 2.60  56 2.60
  24  0.750  0.500  0.750-  36 2.60  40 2.60  46 2.60  48 2.60  55 2.60  56 2.60
  25  0.250  0.250  0.000-  33 2.60  35 2.60  41 2.60  45 2.60  57 2.60  58 2.60
  26  0.750  0.250  0.000-  34 2.60  36 2.60  42 2.60  46 2.60  57 2.60  58 2.60
  27  0.250  0.750  0.000-  33 2.60  35 2.60  43 2.60  47 2.60  59 2.60  60 2.60
  28  0.750  0.750  0.000-  34 2.60  36 2.60  44 2.60  48 2.60  59 2.60  60 2.60
  29  0.250  0.250  0.500-  37 2.60  39 2.60  41 2.60  45 2.60  61 2.60  62 2.60
  30  0.750  0.250  0.500-  38 2.60  40 2.60  42 2.60  46 2.60  61 2.60  62 2.60
  31  0.250  0.750  0.500-  37 2.60  39 2.60  43 2.60  47 2.60  63 2.60  64 2.60
  32  0.750  0.750  0.500-  38 2.60  40 2.60  44 2.60  48 2.60  63 2.60  64 2.60
  33  0.250  0.000  0.000-   1 2.59   2 2.60  17 2.60  21 2.60  25 2.60  27 2.60
  34  0.750  0.000  0.000-   2 2.60  18 2.60  22 2.60  26 2.60  28 2.60   1 2.61
  35  0.250  0.500  0.000-   3 2.60   4 2.60  19 2.60  23 2.60  25 2.60  27 2.60
  36  0.750  0.500  0.000-   3 2.60   4 2.60  20 2.60  24 2.60  26 2.60  28 2.60
  37  0.250  0.000  0.500-   5 2.60   6 2.60  17 2.60  21 2.60  29 2.60  31 2.60
  38  0.750  0.000  0.500-   5 2.60   6 2.60  18 2.60  22 2.60  30 2.60  32 2.60
  39  0.250  0.500  0.500-   7 2.60   8 2.60  19 2.60  23 2.60  29 2.60  31 2.60
  40  0.750  0.500  0.500-   7 2.60   8 2.60  20 2.60  24 2.60  30 2.60  32 2.60
  41  0.250  0.250  0.250-   9 2.60  10 2.60  17 2.60  19 2.60  25 2.60  29 2.60
  42  0.750  0.250  0.250-   9 2.60  10 2.60  18 2.60  20 2.60  26 2.60  30 2.60
  43  0.250  0.750  0.250-  11 2.60  12 2.60  17 2.60  19 2.60  27 2.60  31 2.60
  44  0.750  0.750  0.250-  11 2.60  12 2.60  18 2.60  20 2.60  28 2.60  32 2.60
  45  0.250  0.250  0.750-  13 2.60  14 2.60  21 2.60  23 2.60  25 2.60  29 2.60
  46  0.750  0.250  0.750-  13 2.60  14 2.60  22 2.60  24 2.60  26 2.60  30 2.60
  47  0.250  0.750  0.750-  15 2.60  16 2.60  21 2.60  23 2.60  27 2.60  31 2.60
  48  0.750  0.750  0.750-  15 2.60  16 2.60  22 2.60  24 2.60  28 2.60  32 2.60
  49  0.000  0.000  0.250-   5 2.60   9 2.60  11 2.60  17 2.60  18 2.60   1 2.60
  50  0.500  0.000  0.250-   2 2.60   6 2.60  10 2.60  12 2.60  17 2.60  18 2.60
  51  0.000  0.500  0.250-   3 2.60   7 2.60   9 2.60  11 2.60  19 2.60  20 2.60
  52  0.500  0.500  0.250-   4 2.60   8 2.60  10 2.60  12 2.60  19 2.60  20 2.60
  53  0.000  0.000  0.750-   5 2.60  13 2.60  15 2.60  21 2.60  22 2.60   1 2.60
  54  0.500  0.000  0.750-   2 2.60   6 2.60  14 2.60  16 2.60  21 2.60  22 2.60
  55  0.000  0.500  0.750-   3 2.60   7 2.60  13 2.60  15 2.60  23 2.60  24 2.60
  56  0.500  0.500  0.750-   4 2.60   8 2.60  14 2.60  16 2.60  23 2.60  24 2.60
  57  0.000  0.250  0.000-   3 2.60   9 2.60  13 2.60  25 2.60  26 2.60   1 2.60
  58  0.500  0.250  0.000-   2 2.60   4 2.60  10 2.60  14 2.60  25 2.60  26 2.60
  59  0.000  0.750  0.000-   3 2.60  11 2.60  15 2.60  27 2.60  28 2.60   1 2.60
  60  0.500  0.750  0.000-   2 2.60   4 2.60  12 2.60  16 2.60  27 2.60  28 2.60
  61  0.000  0.250  0.500-   5 2.60   7 2.60   9 2.60  13 2.60  29 2.60  30 2.60
  62  0.500  0.250  0.500-   6 2.60   8 2.60  10 2.60  14 2.60  29 2.60  30 2.60
  63  0.000  0.750  0.500-   5 2.60   7 2.60  11 2.60  15 2.60  31 2.60  32 2.60
  64  0.500  0.750  0.500-   6 2.60   8 2.60  12 2.60  16 2.60  31 2.60  32 2.60
 
  LATTYP: Found a simple cubic cell.
 ALAT       =    10.3963709800
  
  Lattice vectors:
  
 A1 = (  10.3963709800,   0.0000000000,   0.0000000000)
 A2 = (   0.0000000000,  10.3963709800,   0.0000000000)
 A3 = (   0.0000000000,   0.0000000000,  10.3963709800)


Analysis of symmetry for initial positions (statically):
=====================================================================
 Subroutine PRICEL returns:
 Original cell was already a primitive cell.
 

 Routine SETGRP: Setting up the symmetry group for a 
 simple cubic supercell.


 Subroutine GETGRP returns: Found  8 space group operations
 (whereof  8 operations were pure point group operations)
 out of a pool of 48 trial point group operations.


The static configuration has the point symmetry C_4v.


Analysis of symmetry for dynamics (positions and initial velocities):
=====================================================================
 Subroutine PRICEL returns:
 Original cell was already a primitive cell.
 

 Routine SETGRP: Setting up the symmetry group for a 
 simple cubic supercell.


 Subroutine GETGRP returns: Found  8 space group operations
 (whereof  8 operations were pure point group operations)
 out of a pool of 48 trial point group operations.


The dynamic configuration has the point symmetry C_4v.
 
 
 KPOINTS: Automatic mesh                          

Automatic generation of k-mesh.
Space group operators:
 irot       det(A)        alpha          n_x          n_y          n_z        tau_x        tau_y        tau_z
    1     1.000000     0.000000     1.000000     0.000000     0.000000     0.000000     0.000000     0.000000
    2    -1.000000   180.000000     0.000000     0.707107     0.707107     0.000000     0.000000     0.000000
    3    -1.000000   179.999999     0.000000     0.000000     1.000000     0.000000     0.000000     0.000000
    4     1.000000    90.000000    -1.000000     0.000000     0.000000     0.000000     0.000000     0.000000
    5     1.000000   180.000000     1.000000     0.000000     0.000000     0.000000     0.000000     0.000000
    6     1.000000    90.000000     1.000000     0.000000     0.000000     0.000000     0.000000     0.000000
    7    -1.000000   180.000000     0.000000     1.000000     0.000000     0.000000     0.000000     0.000000
    8    -1.000000   180.000000     0.000000    -0.707107     0.707107     0.000000     0.000000     0.000000
 
 Subroutine IBZKPT returns following result:
 ===========================================
 
 Found      6 irreducible k-points:
 
 Following reciprocal coordinates:
            Coordinates               Weight
  0.000000  0.000000  0.000000      1.000000
  0.500000  0.000000  0.000000      1.000000
  0.000000  0.500000  0.000000      2.000000
  0.500000  0.500000  0.000000      2.000000
  0.000000  0.500000  0.500000      1.000000
  0.500000  0.500000  0.500000      1.000000
 
 Following cartesian coordinates:
            Coordinates               Weight
  0.000000  0.000000  0.000000      1.000000
  0.048094  0.000000  0.000000      1.000000
  0.000000  0.048094  0.000000      2.000000
  0.048094  0.048094  0.000000      2.000000
  0.000000  0.048094  0.048094      1.000000
  0.048094  0.048094  0.048094      1.000000
 


--------------------------------------------------------------------------------------------------------




 Dimension of arrays:
   k-points           NKPTS =      6   k-points in BZ     NKDIM =      6   number of bands    NBANDS=    268
   number of dos      NEDOS =    301   number of ions     NIONS =     64
   non local maximal  LDIM  =      5   non local SUM 2l+1 LMDIM =     13
   total plane-waves  NPLWV = 512000
   max r-space proj   IRMAX =      1   max aug-charges    IRDMAX= 115026
   dimension x,y,z NGX =    80 NGY =   80 NGZ =   80
   dimension x,y,z NGXF=   160 NGYF=  160 NGZF=  160
   support grid    NGXF=   320 NGYF=  320 NGZF=  320
   ions per type =              32  32
 NGX,Y,Z   is equivalent  to a cutoff of  12.79, 12.79, 12.79 a.u.
 NGXF,Y,Z  is equivalent  to a cutoff of  25.59, 25.59, 25.59 a.u.


 I would recommend the setting:
   dimension x,y,z NGX =    78 NGY =   78 NGZ =   78
 SYSTEM =  unknown system                          
 POSCAR =   Mg S                                   

 Startparameter for this run:
   NWRITE =      2    write-flag & timer
   PREC   = accura    normal or accurate (medium, high low for compatibility)
   ISTART =      0    job   : 0-new  1-cont  2-samecut
   ICHARG =      2    charge: 1-file 2-atom 10-const
   ISPIN  =      1    spin polarized calculation?
   LNONCOLLINEAR =      F non collinear calculations
   LSORBIT =      F    spin-orbit coupling
   INIWAV =      1    electr: 0-lowe 1-rand  2-diag
   LASPH  =      F    aspherical Exc in radial PAW
   METAGGA=      F    non-selfconsistent MetaGGA calc.

 Electronic Relaxation 1
   ENCUT  =  525.1 eV  38.59 Ry    6.21 a.u.  19.43 19.43 19.43*2*pi/ulx,y,z
   ENINI  =  525.1     initial cutoff
   ENAUG  =  758.8 eV  augmentation charge cutoff
   NELM   =     60;   NELMIN=  5; NELMDL= -5     # of ELM steps 
   EDIFF  = 0.1E-07   stopping-criterion for ELM
   LREAL  =      F    real-space projection
   NLSPLINE    = F    spline interpolate recip. space projectors
   LCOMPAT=      F    compatible to vasp.4.4
   GGA_COMPAT  = T    GGA compatible to vasp.4.4-vasp.4.6
   LMAXPAW     = -100 max onsite density
   LMAXMIX     =    2 max onsite mixed and CHGCAR
   VOSKOWN=      0    Vosko Wilk Nusair interpolation
   ROPT   =    0.00000   0.00000
 Ionic relaxation
   EDIFFG = 0.1E-06   stopping-criterion for IOM
   NSW    =      0    number of steps for IOM
   NBLOCK =      1;   KBLOCK =      1    inner block; outer block 
   IBRION =     -1    ionic relax: 0-MD 1-quasi-New 2-CG
   NFREE  =      0    steps in history (QN), initial steepest desc. (CG)
   ISIF   =      2    stress and relaxation
   IWAVPR =     10    prediction:  0-non 1-charg 2-wave 3-comb
   ISYM   =      2    0-nonsym 1-usesym 2-fastsym
   LCORR  =      T    Harris-Foulkes like correction to forces

   POTIM  = 0.5000    time-step for ionic-motion
   TEIN   =    0.0    initial temperature
   TEBEG  =    0.0;   TEEND  =   0.0 temperature during run
   SMASS  =  -3.00    Nose mass-parameter (am)
   estimated Nose-frequenzy (Omega)   =  0.10E-29 period in steps =****** mass=  -0.247E-26a.u.
   SCALEE = 1.0000    scale energy and forces
   NPACO  =    256;   APACO  = 16.0  distance and # of slots for P.C.
   PSTRESS=    0.0 pullay stress

  Mass of Ions in am
   POMASS =  24.30 32.07
  Ionic Valenz
   ZVAL   =   8.00  6.00
  Atomic Wigner-Seitz radii
   RWIGS  =  -1.00 -1.00
  virtual crystal weights 
   VCA    =   1.00  1.00
   NELECT =     448.0000    total number of electrons
   NUPDOWN=      -1.0000    fix difference up-down

 DOS related values:
   EMIN   =  10.00;   EMAX   =-10.00  energy-range for DOS
   EFERMI =   0.00
   ISMEAR =     0;   SIGMA  =   0.01  broadening in eV -4-tet -1-fermi 0-gaus

 Electronic relaxation 2 (details)
   IALGO  =     38    algorithm
   LDIAG  =      T    sub-space diagonalisation (order eigenvalues)
   LSUBROT=      F    optimize rotation matrix (better conditioning)
   TURBO    =      0    0=normal 1=particle mesh
   IRESTART =      0    0=no restart 2=restart with 2 vectors
   NREBOOT  =      0    no. of reboots
   NMIN     =      0    reboot dimension
   EREF     =   0.00    reference energy to select bands
   IMIX   =      4    mixing-type and parameters
     AMIX     =   0.40;   BMIX     =  1.00
     AMIX_MAG =   1.60;   BMIX_MAG =  1.00
     AMIN     =   0.10
     WC   =   100.;   INIMIX=   1;  MIXPRE=   1;  MAXMIX= -45

 Intra band minimization:
   WEIMIN = 0.0000     energy-eigenvalue tresh-hold
   EBREAK =  0.93E-11  absolut break condition
   DEPER  =   0.30     relativ break condition  

   TIME   =   0.40     timestep for ELM

  volume/ion in A,a.u.               =      17.56       118.48
  Fermi-wavevector in a.u.,A,eV,Ry     =   1.204904  2.276938 19.752848  1.451793
  Thomas-Fermi vector in A             =   2.340616
 
 Write flags
   LWAVE  =      F    write WAVECAR
   LCHARG =      F    write CHGCAR
   LVTOT  =      F    write LOCPOT, total local potential
   LVHAR  =      F    write LOCPOT, Hartree potential only
   LELF   =      F    write electronic localiz. function (ELF)
   LORBIT =      0    0 simple, 1 ext, 2 COOP (PROOUT)


 Dipole corrections
   LMONO  =      F    monopole corrections only (constant potential shift)
   LDIPOL =      F    correct potential (dipole corrections)
   IDIPOL =      0    1-x, 2-y, 3-z, 4-all directions 
   EPSILON=  1.0000000 bulk dielectric constant

 Exchange correlation treatment:
   GGA     =    PS    GGA type
   LEXCH   =    14    internal setting for exchange type
   VOSKOWN=      0    Vosko Wilk Nusair interpolation
   LHFCALC =     F    Hartree Fock is set to
   LHFONE  =     F    Hartree Fock one center treatment
   AEXX    =    0.0000 exact exchange contribution

 Linear response parameters
   LEPSILON=     F    determine dielectric tensor
   LRPA    =     F    only Hartree local field effects (RPA)
   LNABLA  =     F    use nabla operator in PAW spheres
   LVEL    =     F    velocity operator in full k-point grid
   LINTERFAST=   F  fast interpolation
   KINTER  =     0    interpolate to denser k-point grid
   CSHIFT  =0.1000    complex shift for real part using Kramers Kronig
   OMEGAMAX=  -1.0    maximum frequency
   DEG_THRESHOLD= 0.2000000E-02 threshold for treating states as degnerate
   RTIME   =    0.100 relaxation time in fs

 Orbital magnetization related:
   ORBITALMAG=     F  switch on orbital magnetization
   LCHIMAG   =     F  perturbation theory with respect to B field
   DQ        =  0.001000  dq finite difference perturbation B field



--------------------------------------------------------------------------------------------------------


 Static calculation
 charge density and potential will be updated during run
 non-spin polarized calculation
 Variant of blocked Davidson
 Davidson routine will perform the subspace rotation
 perform sub-space diagonalisation
    after iterative eigenvector-optimisation
 modified Broyden-mixing scheme, WC =      100.0
 initial mixing is a Kerker type mixing with AMIX =  0.4000 and BMIX =      1.0000
 Hartree-type preconditioning will be used
 using additional bands           44
 reciprocal scheme for non local part
 use partial core corrections
 calculate Harris-corrections to forces 
   (improved forces if not selfconsistent)
 use gradient corrections 
 use of overlap-Matrix (Vanderbilt PP)
 Gauss-broadening in eV      SIGMA  =   0.01


--------------------------------------------------------------------------------------------------------


  energy-cutoff  :      525.11
  volume of cell :     1123.69
      direct lattice vectors                 reciprocal lattice vectors
    10.396370980  0.000000000  0.000000000     0.096187410  0.000000000  0.000000000
     0.000000000 10.396370980  0.000000000     0.000000000  0.096187410  0.000000000
     0.000000000  0.000000000 10.396370980     0.000000000  0.000000000  0.096187410

  length of vectors
    10.396370980 10.396370980 10.396370980     0.096187410  0.096187410  0.096187410


 
 k-points in units of 2pi/SCALE and weight: Automatic mesh                          
   0.00000000  0.00000000  0.00000000       0.125
   0.04809371  0.00000000  0.00000000       0.125
   0.00000000  0.04809371  0.00000000       0.250
   0.04809371  0.04809371  0.00000000       0.250
   0.00000000  0.04809371  0.04809371       0.125
   0.04809371  0.04809371  0.04809371       0.125
 
 k-points in reciprocal lattice and weights: Automatic mesh                          
   0.00000000  0.00000000  0.00000000       0.125
   0.50000000  0.00000000  0.00000000       0.125
   0.00000000  0.50000000  0.00000000       0.250
   0.50000000  0.50000000  0.00000000       0.250
   0.00000000  0.50000000  0.50000000       0.125
   0.50000000  0.50000000  0.50000000       0.125
 
 position of ions in fractional coordinates (direct lattice) 
   0.00096187  0.00000000  0.00000000
   0.50000000  0.00000000  0.00000000
   0.00000000  0.50000000  0.00000000
   0.50000000  0.50000000  0.00000000
   0.00000000  0.00000000  0.50000000
   0.50000000  0.00000000  0.50000000
   0.00000000  0.50000000  0.50000000
   0.50000000  0.50000000  0.50000000
   0.00000000  0.25000000  0.25000000
   0.50000000  0.25000000  0.25000000
   0.00000000  0.75000000  0.25000000
   0.50000000  0.75000000  0.25000000
   0.00000000  0.25000000  0.75000000
   0.50000000  0.25000000  0.75000000
   0.00000000  0.75000000  0.75000000
   0.50000000  0.75000000  0.75000000
   0.25000000  0.00000000  0.25000000
   0.75000000  0.00000000  0.25000000
   0.25000000  0.50000000  0.25000000
   0.75000000  0.50000000  0.25000000
   0.25000000  0.00000000  0.75000000
   0.75000000  0.00000000  0.75000000
   0.25000000  0.50000000  0.75000000
   0.75000000  0.50000000  0.75000000
   0.25000000  0.25000000  0.00000000
   0.75000000  0.25000000  0.00000000
   0.25000000  0.75000000  0.00000000
   0.75000000  0.75000000  0.00000000
   0.25000000  0.25000000  0.50000000
   0.75000000  0.25000000  0.50000000
   0.25000000  0.75000000  0.50000000
   0.75000000  0.75000000  0.50000000
   0.25000000  0.00000000  0.00000000
   0.75000000  0.00000000  0.00000000
   0.25000000  0.50000000  0.00000000
   0.75000000  0.50000000  0.00000000
   0.25000000  0.00000000  0.50000000
   0.75000000  0.00000000  0.50000000
   0.25000000  0.50000000  0.50000000
   0.75000000  0.50000000  0.50000000
   0.25000000  0.25000000  0.25000000
   0.75000000  0.25000000  0.25000000
   0.25000000  0.75000000  0.25000000
   0.75000000  0.75000000  0.25000000
   0.25000000  0.25000000  0.75000000
   0.75000000  0.25000000  0.75000000
   0.25000000  0.75000000  0.75000000
   0.75000000  0.75000000  0.75000000
   0.00000000  0.00000000  0.25000000
   0.50000000  0.00000000  0.25000000
   0.00000000  0.50000000  0.25000000
   0.50000000  0.50000000  0.25000000
   0.00000000  0.00000000  0.75000000
   0.50000000  0.00000000  0.75000000
   0.00000000  0.50000000  0.75000000
   0.50000000  0.50000000  0.75000000
   0.00000000  0.25000000  0.00000000
   0.50000000  0.25000000  0.00000000
   0.00000000  0.75000000  0.00000000
   0.50000000  0.75000000  0.00000000
   0.00000000  0.25000000  0.50000000
   0.50000000  0.25000000  0.50000000
   0.00000000  0.75000000  0.50000000
   0.50000000  0.75000000  0.50000000
 
 position of ions in cartesian coordinates  (Angst):
   0.01000000  0.00000000  0.00000000
   5.19818549  0.00000000  0.00000000
   0.00000000  5.19818549  0.00000000
   5.19818549  5.19818549  0.00000000
   0.00000000  0.00000000  5.19818549
   5.19818549  0.00000000  5.19818549
   0.00000000  5.19818549  5.19818549
   5.19818549  5.19818549  5.19818549
   0.00000000  2.59909275  2.59909275
   5.19818549  2.59909275  2.59909275
   0.00000000  7.79727824  2.59909275
   5.19818549  7.79727824  2.59909275
   0.00000000  2.59909275  7.79727824
   5.19818549  2.59909275  7.79727824
   0.00000000  7.79727824  7.79727824
   5.19818549  7.79727824  7.79727824
   2.59909275  0.00000000  2.59909275
   7.79727824  0.00000000  2.59909275
   2.59909275  5.19818549  2.59909275
   7.79727824  5.19818549  2.59909275
   2.59909275  0.00000000  7.79727824
   7.79727824  0.00000000  7.79727824
   2.59909275  5.19818549  7.79727824
   7.79727824  5.19818549  7.79727824
   2.59909275  2.59909275  0.00000000
   7.79727824  2.59909275  0.00000000
   2.59909275  7.79727824  0.00000000
   7.79727824  7.79727824  0.00000000
   2.59909275  2.59909275  5.19818549
   7.79727824  2.59909275  5.19818549
   2.59909275  7.79727824  5.19818549
   7.79727824  7.79727824  5.19818549
   2.59909275  0.00000000  0.00000000
   7.79727824  0.00000000  0.00000000
   2.59909275  5.19818549  0.00000000
   7.79727824  5.19818549  0.00000000
   2.59909275  0.00000000  5.19818549
   7.79727824  0.00000000  5.19818549
   2.59909275  5.19818549  5.19818549
   7.79727824  5.19818549  5.19818549
   2.59909275  2.59909275  2.59909275
   7.79727824  2.59909275  2.59909275
   2.59909275  7.79727824  2.59909275
   7.79727824  7.79727824  2.59909275
   2.59909275  2.59909275  7.79727824
   7.79727824  2.59909275  7.79727824
   2.59909275  7.79727824  7.79727824
   7.79727824  7.79727824  7.79727824
   0.00000000  0.00000000  2.59909275
   5.19818549  0.00000000  2.59909275
   0.00000000  5.19818549  2.59909275
   5.19818549  5.19818549  2.59909275
   0.00000000  0.00000000  7.79727824
   5.19818549  0.00000000  7.79727824
   0.00000000  5.19818549  7.79727824
   5.19818549  5.19818549  7.79727824
   0.00000000  2.59909275  0.00000000
   5.19818549  2.59909275  0.00000000
   0.00000000  7.79727824  0.00000000
   5.19818549  7.79727824  0.00000000
   0.00000000  2.59909275  5.19818549
   5.19818549  2.59909275  5.19818549
   0.00000000  7.79727824  5.19818549
   5.19818549  7.79727824  5.19818549
 


--------------------------------------------------------------------------------------------------------


 k-point  1 :   0.0000 0.0000 0.0000  plane waves:   30839
 k-point  2 :   0.5000 0.0000 0.0000  plane waves:   30750
 k-point  3 :   0.0000 0.5000 0.0000  plane waves:   30750
 k-point  4 :   0.5000 0.5000 0.0000  plane waves:   30624
 k-point  5 :   0.0000 0.5000 0.5000  plane waves:   30624
 k-point  6 :   0.5000 0.5000 0.5000  plane waves:   30688

 maximum and minimum number of plane-waves per node :      6195     6093

 maximum number of plane-waves:     30839
 maximum index in each direction: 
   IXMAX=   19   IYMAX=   19   IZMAX=   19
   IXMIN=  -19   IYMIN=  -19   IZMIN=  -19

 NGX is ok and might be reduce to  78
 NGY is ok and might be reduce to  78
 NGZ is ok and might be reduce to  78

 parallel 3D FFT for wavefunctions:
    minimum data exchange during FFTs selected (reduces bandwidth)
 parallel 3D FFT for charge:
    minimum data exchange during FFTs selected (reduces bandwidth)


 total amount of memory used by VASP on root node   133490. kBytes
========================================================================

   base      :      30000. kBytes
   nonl-proj :      14031. kBytes
   fftplans  :      33043. kBytes
   grid      :      15687. kBytes
   one-center:        105. kBytes
   wavefun   :      40624. kBytes
 
     INWAV:  cpu time    0.00: real time    0.00
 Broyden mixing: mesh for mixing (old mesh)
   NGX = 39   NGY = 39   NGZ = 39
  (NGX  =160   NGY  =160   NGZ  =160)
  gives a total of  59319 points

 initial charge density was supplied:
 charge density of overlapping atoms calculated
 number of electron     448.0000000 magnetization 
 keeping initial charge density in first step


--------------------------------------------------------------------------------------------------------


 Maximum index for augmentation-charges         5899 (set IRDMAX)


--------------------------------------------------------------------------------------------------------


 First call to EWALD:  gamma=   0.170
 Maximum number of real-space cells 3x 3x 3
 Maximum number of reciprocal cells 3x 3x 3

 FEWALD executed in parallel
    FEWALD:  cpu time    0.00: real time    0.00


----------------------------------------- Iteration    1(   1)  ---------------------------------------


    POTLOK:  cpu time    0.17: real time    0.17
    SETDIJ:  cpu time    0.21: real time    0.21
     EDDAV:  cpu time   24.67: real time   24.68
       DOS:  cpu time    0.00: real time    0.00
    --------------------------------------------
      LOOP:  cpu time   25.06: real time   25.08

 eigenvalue-minimisations  :  3888
 total energy-change (2. order) : 0.4286353E+04  (-0.2666266E+05)
 number of electron     448.0000000 magnetization 
 augmentation part      448.0000000 magnetization 

 Free energy of the ion-electron system (eV)
  ---------------------------------------------------
  alpha Z        PSCENC =      1209.31185597
  Ewald energy   TEWEN  =    -24958.02151244
  -Hartree energ DENC   =     -9350.33021255
  -exchange      EXHF   =         0.00000000
  -V(xc)+E(xc)   XCENC  =      1273.89882095
  PAW double counting   =     27701.73694044   -31358.41014717
  entropy T*S    EENTRO =        -0.00042700
  eigenvalues    EBANDS =     -2805.47552738
  atomic energy  EATOM  =     42573.64344421
  ---------------------------------------------------
  free energy    TOTEN  =      4286.35323504 eV

  energy without entropy =     4286.35366203  energy(sigma->0) =     4286.35344854


--------------------------------------------------------------------------------------------------------




----------------------------------------- Iteration    1(   2)  ---------------------------------------


     EDDAV:  cpu time   24.35: real time   24.35
       DOS:  cpu time    0.00: real time    0.00
    --------------------------------------------
      LOOP:  cpu time   24.35: real time   24.35

 eigenvalue-minimisations  :  3808
 total energy-change (2. order) :-0.4179758E+04  (-0.4028695E+04)
 number of electron     448.0000000 magnetization 
 augmentation part      448.0000000 magnetization 

 Free energy of the ion-electron system (eV)
  ---------------------------------------------------
  alpha Z        PSCENC =      1209.31185597
  Ewald energy   TEWEN  =    -24958.02151244
  -Hartree energ DENC   =     -9350.33021255
  -exchange      EXHF   =         0.00000000
  -V(xc)+E(xc)   XCENC  =      1273.89882095
  PAW double counting   =     27701.73694044   -31358.41014717
  entropy T*S    EENTRO =         0.00000000
  eigenvalues    EBANDS =     -6985.23358723
  atomic energy  EATOM  =     42573.64344421
  ---------------------------------------------------
  free energy    TOTEN  =       106.59560218 eV

  energy without entropy =      106.59560218  energy(sigma->0) =      106.59560218


--------------------------------------------------------------------------------------------------------




----------------------------------------- Iteration    1(   3)  ---------------------------------------


     EDDAV:  cpu time   24.85: real time   24.85
       DOS:  cpu time    0.00: real time    0.00
    --------------------------------------------
      LOOP:  cpu time   24.85: real time   24.86

 eigenvalue-minimisations  :  3912
 total energy-change (2. order) :-0.3888869E+03  (-0.3850987E+03)
 number of electron     448.0000000 magnetization 
 augmentation part      448.0000000 magnetization 

 Free energy of the ion-electron system (eV)
  ---------------------------------------------------
  alpha Z        PSCENC =      1209.31185597
  Ewald energy   TEWEN  =    -24958.02151244
  -Hartree energ DENC   =     -9350.33021255
  -exchange      EXHF   =         0.00000000
  -V(xc)+E(xc)   XCENC  =      1273.89882095
  PAW double counting   =     27701.73694044   -31358.41014717
  entropy T*S    EENTRO =         0.00000000
  eigenvalues    EBANDS =     -7374.12047743
  atomic energy  EATOM  =     42573.64344421
  ---------------------------------------------------
  free energy    TOTEN  =      -282.29128802 eV

  energy without entropy =     -282.29128802  energy(sigma->0) =     -282.29128802


--------------------------------------------------------------------------------------------------------




----------------------------------------- Iteration    1(   4)  ---------------------------------------


     EDDAV:  cpu time   23.65: real time   23.66
       DOS:  cpu time    0.00: real time    0.00
    --------------------------------------------
      LOOP:  cpu time   23.66: real time   23.66

 eigenvalue-minimisations  :  3664
 total energy-change (2. order) :-0.1862146E+02  (-0.1855450E+02)
 number of electron     448.0000000 magnetization 
 augmentation part      448.0000000 magnetization 

 Free energy of the ion-electron system (eV)
  ---------------------------------------------------
  alpha Z        PSCENC =      1209.31185597
  Ewald energy   TEWEN  =    -24958.02151244
  -Hartree energ DENC   =     -9350.33021255
  -exchange      EXHF   =         0.00000000
  -V(xc)+E(xc)   XCENC  =      1273.89882095
  PAW double counting   =     27701.73694044   -31358.41014717
  entropy T*S    EENTRO =         0.00000000
  eigenvalues    EBANDS =     -7392.74193543
  atomic energy  EATOM  =     42573.64344421
  ---------------------------------------------------
  free energy    TOTEN  =      -300.91274602 eV

  energy without entropy =     -300.91274602  energy(sigma->0) =     -300.91274602


--------------------------------------------------------------------------------------------------------




----------------------------------------- Iteration    1(   5)  ---------------------------------------


     EDDAV:  cpu time   25.52: real time   25.51
       DOS:  cpu time    0.00: real time    0.00
    CHARGE:  cpu time    0.97: real time    0.97
    MIXING:  cpu time    0.01: real time    0.01
    --------------------------------------------
      LOOP:  cpu time   26.50: real time   26.50

 eigenvalue-minimisations  :  4048
 total energy-change (2. order) :-0.8393711E+00  (-0.8387314E+00)
 number of electron     448.0000011 magnetization 
 augmentation part      105.4526075 magnetization 

 Broyden mixing:
  rms(total) = 0.24435E+01    rms(broyden)= 0.24433E+01
  rms(prec ) = 0.29219E+01
  weight for this iteration     100.00

 Free energy of the ion-electron system (eV)
  ---------------------------------------------------
  alpha Z        PSCENC =      1209.31185597
  Ewald energy   TEWEN  =    -24958.02151244
  -Hartree energ DENC   =     -9350.33021255
  -exchange      EXHF   =         0.00000000
  -V(xc)+E(xc)   XCENC  =      1273.89882095
  PAW double counting   =     27701.73694044   -31358.41014717
  entropy T*S    EENTRO =         0.00000000
  eigenvalues    EBANDS =     -7393.58130656
  atomic energy  EATOM  =     42573.64344421
  ---------------------------------------------------
  free energy    TOTEN  =      -301.75211715 eV

  energy without entropy =     -301.75211715  energy(sigma->0) =     -301.75211715


--------------------------------------------------------------------------------------------------------




----------------------------------------- Iteration    1(   6)  ---------------------------------------


    POTLOK:  cpu time    0.17: real time    0.17
    SETDIJ:  cpu time    0.21: real time    0.21
     EDDAV:  cpu time   23.18: real time   23.19
       DOS:  cpu time    0.00: real time    0.00
    CHARGE:  cpu time    1.04: real time    1.04
    MIXING:  cpu time    0.01: real time    0.01
    --------------------------------------------
      LOOP:  cpu time   24.62: real time   24.62

 eigenvalue-minimisations  :  3564
 total energy-change (2. order) : 0.1058188E+02  (-0.2147445E+01)
 number of electron     448.0000011 magnetization 
 augmentation part      106.7089777 magnetization 

 Broyden mixing:
  rms(total) = 0.17658E+01    rms(broyden)= 0.17658E+01
  rms(prec ) = 0.18808E+01
  weight for this iteration     100.00

 eigenvalues of (default mixing * dielectric matrix)
  average eigenvalue GAMMA=   2.0834
  2.0834

 Free energy of the ion-electron system (eV)
  ---------------------------------------------------
  alpha Z        PSCENC =      1209.31185597
  Ewald energy   TEWEN  =    -24958.02151244
  -Hartree energ DENC   =     -9337.83343750
  -exchange      EXHF   =         0.00000000
  -V(xc)+E(xc)   XCENC  =      1282.66248558
  PAW double counting   =     29907.38324430   -33534.82215516
  entropy T*S    EENTRO =         0.00000000
  eigenvalues    EBANDS =     -7433.49415904
  atomic energy  EATOM  =     42573.64344421
  ---------------------------------------------------
  free energy    TOTEN  =      -291.17023407 eV

  energy without entropy =     -291.17023407  energy(sigma->0) =     -291.17023407


--------------------------------------------------------------------------------------------------------




----------------------------------------- Iteration    1(   7)  ---------------------------------------


    POTLOK:  cpu time    0.17: real time    0.17
    SETDIJ:  cpu time    0.21: real time    0.21
     EDDAV:  cpu time   24.11: real time   24.11
       DOS:  cpu time    0.00: real time    0.00
    CHARGE:  cpu time    1.04: real time    1.04
    MIXING:  cpu time    0.01: real time    0.01
    --------------------------------------------
      LOOP:  cpu time   25.54: real time   25.55

 eigenvalue-minimisations  :  3768
 total energy-change (2. order) : 0.1273637E+01  (-0.7833289E+00)
 number of electron     448.0000011 magnetization 
 augmentation part      107.4660007 magnetization 

 Broyden mixing:
  rms(total) = 0.89431E+00    rms(broyden)= 0.89431E+00
  rms(prec ) = 0.91553E+00
  weight for this iteration     100.00

 eigenvalues of (default mixing * dielectric matrix)
  average eigenvalue GAMMA=   2.1982
  1.4536  2.9427

 Free energy of the ion-electron system (eV)
  ---------------------------------------------------
  alpha Z        PSCENC =      1209.31185597
  Ewald energy   TEWEN  =    -24958.02151244
  -Hartree energ DENC   =     -9309.23459741
  -exchange      EXHF   =         0.00000000
  -V(xc)+E(xc)   XCENC  =      1289.34320625
  PAW double counting   =     34230.32756949   -37845.64154093
  entropy T*S    EENTRO =         0.00000000
  eigenvalues    EBANDS =     -7479.62502224
  atomic energy  EATOM  =     42573.64344421
  ---------------------------------------------------
  free energy    TOTEN  =      -289.89659710 eV

  energy without entropy =     -289.89659710  energy(sigma->0) =     -289.89659710


--------------------------------------------------------------------------------------------------------




----------------------------------------- Iteration    1(   8)  ---------------------------------------


    POTLOK:  cpu time    0.17: real time    0.17
    SETDIJ:  cpu time    0.21: real time    0.21
     EDDAV:  cpu time   22.72: real time   22.72
       DOS:  cpu time    0.00: real time    0.00
    CHARGE:  cpu time    1.02: real time    1.02
    MIXING:  cpu time    0.01: real time    0.01
    --------------------------------------------
      LOOP:  cpu time   24.14: real time   24.13

 eigenvalue-minimisations  :  3492
 total energy-change (2. order) : 0.7585816E-01  (-0.6867949E-01)
 number of electron     448.0000011 magnetization 
 augmentation part      107.2647243 magnetization 

 Broyden mixing:
  rms(total) = 0.23642E+00    rms(broyden)= 0.23642E+00
  rms(prec ) = 0.23898E+00
  weight for this iteration     100.00

 eigenvalues of (default mixing * dielectric matrix)
  average eigenvalue GAMMA=   1.6028
  2.4840  0.9186  1.4059

 Free energy of the ion-electron system (eV)
  ---------------------------------------------------
  alpha Z        PSCENC =      1209.31185597
  Ewald energy   TEWEN  =    -24958.02151244
  -Hartree energ DENC   =     -9275.53810981
  -exchange      EXHF   =         0.00000000
  -V(xc)+E(xc)   XCENC  =      1290.20873624
  PAW double counting   =     38244.79419074   -41868.76885614
  entropy T*S    EENTRO =         0.00000000
  eigenvalues    EBANDS =     -7505.45048771
  atomic energy  EATOM  =     42573.64344421
  ---------------------------------------------------
  free energy    TOTEN  =      -289.82073894 eV

  energy without entropy =     -289.82073894  energy(sigma->0) =     -289.82073894


--------------------------------------------------------------------------------------------------------




----------------------------------------- Iteration    1(   9)  ---------------------------------------


    POTLOK:  cpu time    0.17: real time    0.17
    SETDIJ:  cpu time    0.21: real time    0.21
     EDDAV:  cpu time   23.85: real time   23.86
       DOS:  cpu time    0.00: real time    0.00
    CHARGE:  cpu time    1.02: real time    1.02
    MIXING:  cpu time    0.01: real time    0.01
    --------------------------------------------
      LOOP:  cpu time   25.26: real time   25.27

 eigenvalue-minimisations  :  3712
 total energy-change (2. order) : 0.4871472E-02  (-0.2585373E-02)
 number of electron     448.0000011 magnetization 
 augmentation part      107.2915696 magnetization 

 Broyden mixing:
  rms(total) = 0.50147E-01    rms(broyden)= 0.50147E-01
  rms(prec ) = 0.51638E-01
  weight for this iteration     100.00

 eigenvalues of (default mixing * dielectric matrix)
  average eigenvalue GAMMA=   1.8817
  2.5350  2.5350  1.0404  1.4163

 Free energy of the ion-electron system (eV)
  ---------------------------------------------------
  alpha Z        PSCENC =      1209.31185597
  Ewald energy   TEWEN  =    -24958.02151244
  -Hartree energ DENC   =     -9279.69240432
  -exchange      EXHF   =         0.00000000
  -V(xc)+E(xc)   XCENC  =      1290.06721188
  PAW double counting   =     37445.31658039   -41067.80373595
  entropy T*S    EENTRO =         0.00000000
  eigenvalues    EBANDS =     -7502.63730723
  atomic energy  EATOM  =     42573.64344421
  ---------------------------------------------------
  free energy    TOTEN  =      -289.81586747 eV

  energy without entropy =     -289.81586747  energy(sigma->0) =     -289.81586747


--------------------------------------------------------------------------------------------------------




----------------------------------------- Iteration    1(  10)  ---------------------------------------


    POTLOK:  cpu time    0.17: real time    0.17
    SETDIJ:  cpu time    0.21: real time    0.21
     EDDAV:  cpu time   23.41: real time   23.41
       DOS:  cpu time    0.00: real time    0.00
    CHARGE:  cpu time    1.01: real time    1.01
    MIXING:  cpu time    0.01: real time    0.01
    --------------------------------------------
      LOOP:  cpu time   24.82: real time   24.82

 eigenvalue-minimisations  :  3628
 total energy-change (2. order) :-0.4555481E-03  (-0.6387179E-03)
 number of electron     448.0000011 magnetization 
 augmentation part      107.3123524 magnetization 

 Broyden mixing:
  rms(total) = 0.22582E-01    rms(broyden)= 0.22582E-01
  rms(prec ) = 0.23757E-01
  weight for this iteration     100.00

 eigenvalues of (default mixing * dielectric matrix)
  average eigenvalue GAMMA=   1.6953
  2.6899  2.4751  1.2625  1.1645  0.8843

 Free energy of the ion-electron system (eV)
  ---------------------------------------------------
  alpha Z        PSCENC =      1209.31185597
  Ewald energy   TEWEN  =    -24958.02151244
  -Hartree energ DENC   =     -9277.41159530
  -exchange      EXHF   =         0.00000000
  -V(xc)+E(xc)   XCENC  =      1290.08624668
  PAW double counting   =     37144.75745890   -40767.35875186
  entropy T*S    EENTRO =         0.00000000
  eigenvalues    EBANDS =     -7504.82346917
  atomic energy  EATOM  =     42573.64344421
  ---------------------------------------------------
  free energy    TOTEN  =      -289.81632302 eV

  energy without entropy =     -289.81632302  energy(sigma->0) =     -289.81632302


--------------------------------------------------------------------------------------------------------




----------------------------------------- Iteration    1(  11)  ---------------------------------------


    POTLOK:  cpu time    0.17: real time    0.17
    SETDIJ:  cpu time    0.21: real time    0.21
     EDDAV:  cpu time   23.21: real time   23.20
       DOS:  cpu time    0.00: real time    0.00
    CHARGE:  cpu time    0.99: real time    0.99
    MIXING:  cpu time    0.01: real time    0.01
    --------------------------------------------
      LOOP:  cpu time   24.60: real time   24.59

 eigenvalue-minimisations  :  3584
 total energy-change (2. order) : 0.2609038E-03  (-0.1001198E-03)
 number of electron     448.0000011 magnetization 
 augmentation part      107.3036807 magnetization 

 Broyden mixing:
  rms(total) = 0.22794E-02    rms(broyden)= 0.22792E-02
  rms(prec ) = 0.23835E-02
  weight for this iteration     100.00

 eigenvalues of (default mixing * dielectric matrix)
  average eigenvalue GAMMA=   1.5065
  2.6720  2.4638  1.2683  1.1718  0.7314  0.7314

 Free energy of the ion-electron system (eV)
  ---------------------------------------------------
  alpha Z        PSCENC =      1209.31185597
  Ewald energy   TEWEN  =    -24958.02151244
  -Hartree energ DENC   =     -9276.69037081
  -exchange      EXHF   =         0.00000000
  -V(xc)+E(xc)   XCENC  =      1290.07118302
  PAW double counting   =     37210.79762844   -40833.72425239
  entropy T*S    EENTRO =         0.00000000
  eigenvalues    EBANDS =     -7505.20403812
  atomic energy  EATOM  =     42573.64344421
  ---------------------------------------------------
  free energy    TOTEN  =      -289.81606211 eV

  energy without entropy =     -289.81606211  energy(sigma->0) =     -289.81606211


--------------------------------------------------------------------------------------------------------




----------------------------------------- Iteration    1(  12)  ---------------------------------------


    POTLOK:  cpu time    0.17: real time    0.18
    SETDIJ:  cpu time    0.21: real time    0.21
     EDDAV:  cpu time   23.78: real time   23.77
       DOS:  cpu time    0.00: real time    0.00
    CHARGE:  cpu time    1.00: real time    1.00
    MIXING:  cpu time    0.01: real time    0.01
    --------------------------------------------
      LOOP:  cpu time   25.17: real time   25.17

 eigenvalue-minimisations  :  3684
 total energy-change (2. order) :-0.1882589E-05  (-0.3069763E-05)
 number of electron     448.0000011 magnetization 
 augmentation part      107.3028296 magnetization 

 Broyden mixing:
  rms(total) = 0.20225E-02    rms(broyden)= 0.20225E-02
  rms(prec ) = 0.20671E-02
  weight for this iteration     100.00

 eigenvalues of (default mixing * dielectric matrix)
  average eigenvalue GAMMA=   1.7339
  2.7643  2.7643  2.1929  1.3877  0.9323  1.0479  1.0479

 Free energy of the ion-electron system (eV)
  ---------------------------------------------------
  alpha Z        PSCENC =      1209.31185597
  Ewald energy   TEWEN  =    -24958.02151244
  -Hartree energ DENC   =     -9276.70750551
  -exchange      EXHF   =         0.00000000
  -V(xc)+E(xc)   XCENC  =      1290.07143124
  PAW double counting   =     37215.34477395   -40838.27925437
  entropy T*S    EENTRO =         0.00000000
  eigenvalues    EBANDS =     -7505.17929705
  atomic energy  EATOM  =     42573.64344421
  ---------------------------------------------------
  free energy    TOTEN  =      -289.81606400 eV

  energy without entropy =     -289.81606400  energy(sigma->0) =     -289.81606400


--------------------------------------------------------------------------------------------------------




----------------------------------------- Iteration    1(  13)  ---------------------------------------


    POTLOK:  cpu time    0.17: real time    0.18
    SETDIJ:  cpu time    0.22: real time    0.22
     EDDAV:  cpu time   23.48: real time   23.48
       DOS:  cpu time    0.00: real time    0.00
    CHARGE:  cpu time    1.00: real time    1.01
    MIXING:  cpu time    0.01: real time    0.01
    --------------------------------------------
      LOOP:  cpu time   24.89: real time   24.90

 eigenvalue-minimisations  :  3624
 total energy-change (2. order) :-0.2522531E-05  (-0.7463753E-06)
 number of electron     448.0000011 magnetization 
 augmentation part      107.3020749 magnetization 

 Broyden mixing:
  rms(total) = 0.54964E-03    rms(broyden)= 0.54962E-03
  rms(prec ) = 0.60491E-03
  weight for this iteration     100.00

 eigenvalues of (default mixing * dielectric matrix)
  average eigenvalue GAMMA=   1.6255
  2.6979  2.4840  2.4840  1.2155  1.2155  1.0361  0.9353  0.9353

 Free energy of the ion-electron system (eV)
  ---------------------------------------------------
  alpha Z        PSCENC =      1209.31185597
  Ewald energy   TEWEN  =    -24958.02151244
  -Hartree energ DENC   =     -9276.71072459
  -exchange      EXHF   =         0.00000000
  -V(xc)+E(xc)   XCENC  =      1290.06713523
  PAW double counting   =     37208.50988470   -40831.49062113
  entropy T*S    EENTRO =         0.00000000
  eigenvalues    EBANDS =     -7505.12552848
  atomic energy  EATOM  =     42573.64344421
  ---------------------------------------------------
  free energy    TOTEN  =      -289.81606652 eV

  energy without entropy =     -289.81606652  energy(sigma->0) =     -289.81606652


--------------------------------------------------------------------------------------------------------




----------------------------------------- Iteration    1(  14)  ---------------------------------------


    POTLOK:  cpu time    0.18: real time    0.18
    SETDIJ:  cpu time    0.21: real time    0.21
     EDDAV:  cpu time   23.17: real time   23.18
       DOS:  cpu time    0.00: real time    0.00
    CHARGE:  cpu time    1.01: real time    1.01
    MIXING:  cpu time    0.01: real time    0.01
    --------------------------------------------
      LOOP:  cpu time   24.58: real time   24.59

 eigenvalue-minimisations  :  3572
 total energy-change (2. order) : 0.2396700E-06  (-0.1621390E-06)
 number of electron     448.0000011 magnetization 
 augmentation part      107.3023643 magnetization 

 Broyden mixing:
  rms(total) = 0.23782E-03    rms(broyden)= 0.23782E-03
  rms(prec ) = 0.24873E-03
  weight for this iteration     100.00

 eigenvalues of (default mixing * dielectric matrix)
  average eigenvalue GAMMA=   1.5319
  2.6233  2.6130  2.6130  1.2441  1.1038  1.0793  0.9556  0.9556  0.5989

 Free energy of the ion-electron system (eV)
  ---------------------------------------------------
  alpha Z        PSCENC =      1209.31185597
  Ewald energy   TEWEN  =    -24958.02151244
  -Hartree energ DENC   =     -9276.71468430
  -exchange      EXHF   =         0.00000000
  -V(xc)+E(xc)   XCENC  =      1290.07030040
  PAW double counting   =     37211.35333243   -40834.32399898
  entropy T*S    EENTRO =         0.00000000
  eigenvalues    EBANDS =     -7505.13480356
  atomic energy  EATOM  =     42573.64344421
  ---------------------------------------------------
  free energy    TOTEN  =      -289.81606628 eV

  energy without entropy =     -289.81606628  energy(sigma->0) =     -289.81606628


--------------------------------------------------------------------------------------------------------




----------------------------------------- Iteration    1(  15)  ---------------------------------------


    POTLOK:  cpu time    0.17: real time    0.17
    SETDIJ:  cpu time    0.21: real time    0.21
     EDDAV:  cpu time   20.75: real time   20.76
       DOS:  cpu time    0.00: real time    0.00
    CHARGE:  cpu time    1.00: real time    1.01
    MIXING:  cpu time    0.01: real time    0.01
    --------------------------------------------
      LOOP:  cpu time   22.15: real time   22.17

 eigenvalue-minimisations  :  3072
 total energy-change (2. order) : 0.2585002E-06  (-0.5129661E-08)
 number of electron     448.0000011 magnetization 
 augmentation part      107.3023598 magnetization 

 Broyden mixing:
  rms(total) = 0.23359E-03    rms(broyden)= 0.23359E-03
  rms(prec ) = 0.23912E-03
  weight for this iteration     100.00

 eigenvalues of (default mixing * dielectric matrix)
  average eigenvalue GAMMA=   1.6725
  3.2005  2.7319  2.4348  1.5603  1.5603  1.3170  1.0373  1.0373  0.9228  0.9228

 Free energy of the ion-electron system (eV)
  ---------------------------------------------------
  alpha Z        PSCENC =      1209.31185597
  Ewald energy   TEWEN  =    -24958.02151244
  -Hartree energ DENC   =     -9276.71494361
  -exchange      EXHF   =         0.00000000
  -V(xc)+E(xc)   XCENC  =      1290.07024245
  PAW double counting   =     37212.14409021   -40835.11336690
  entropy T*S    EENTRO =         0.00000000
  eigenvalues    EBANDS =     -7505.13587592
  atomic energy  EATOM  =     42573.64344421
  ---------------------------------------------------
  free energy    TOTEN  =      -289.81606602 eV

  energy without entropy =     -289.81606602  energy(sigma->0) =     -289.81606602


--------------------------------------------------------------------------------------------------------




----------------------------------------- Iteration    1(  16)  ---------------------------------------


    POTLOK:  cpu time    0.17: real time    0.17
    SETDIJ:  cpu time    0.21: real time    0.21
     EDDAV:  cpu time   19.93: real time   19.94
       DOS:  cpu time    0.00: real time    0.00
    CHARGE:  cpu time    1.04: real time    1.04
    MIXING:  cpu time    0.01: real time    0.01
    --------------------------------------------
      LOOP:  cpu time   21.37: real time   21.38

 eigenvalue-minimisations  :  2920
 total energy-change (2. order) : 0.8916686E-07  (-0.8736588E-08)
 number of electron     448.0000011 magnetization 
 augmentation part      107.3022850 magnetization 

 Broyden mixing:
  rms(total) = 0.15981E-03    rms(broyden)= 0.15981E-03
  rms(prec ) = 0.16699E-03
  weight for this iteration     100.00

 eigenvalues of (default mixing * dielectric matrix)
  average eigenvalue GAMMA=   1.6118
  2.8637  2.6143  2.4667  1.6777  1.6777  1.1098  1.1098  1.2587  1.1481  0.9825
  0.8208

 Free energy of the ion-electron system (eV)
  ---------------------------------------------------
  alpha Z        PSCENC =      1209.31185597
  Ewald energy   TEWEN  =    -24958.02151244
  -Hartree energ DENC   =     -9276.71492483
  -exchange      EXHF   =         0.00000000
  -V(xc)+E(xc)   XCENC  =      1290.06993750
  PAW double counting   =     37212.09316128   -40835.06418476
  entropy T*S    EENTRO =         0.00000000
  eigenvalues    EBANDS =     -7505.13384287
  atomic energy  EATOM  =     42573.64344421
  ---------------------------------------------------
  free energy    TOTEN  =      -289.81606593 eV

  energy without entropy =     -289.81606593  energy(sigma->0) =     -289.81606593


--------------------------------------------------------------------------------------------------------




----------------------------------------- Iteration    1(  17)  ---------------------------------------


    POTLOK:  cpu time    0.17: real time    0.17
    SETDIJ:  cpu time    0.21: real time    0.21
     EDDAV:  cpu time   19.75: real time   19.76
       DOS:  cpu time    0.00: real time    0.00
    CHARGE:  cpu time    1.01: real time    1.01
    MIXING:  cpu time    0.01: real time    0.01
    --------------------------------------------
      LOOP:  cpu time   21.16: real time   21.17

 eigenvalue-minimisations  :  2888
 total energy-change (2. order) : 0.4550384E-07  (-0.4541488E-08)
 number of electron     448.0000011 magnetization 
 augmentation part      107.3023404 magnetization 

 Broyden mixing:
  rms(total) = 0.17109E-03    rms(broyden)= 0.17109E-03
  rms(prec ) = 0.17199E-03
  weight for this iteration     100.00

 eigenvalues of (default mixing * dielectric matrix)
  average eigenvalue GAMMA=   1.5131
  2.9228  2.6484  2.4532  1.5923  1.5923  1.1167  1.1167  1.2829  1.1133  0.9897
  0.7827  0.5457

 Free energy of the ion-electron system (eV)
  ---------------------------------------------------
  alpha Z        PSCENC =      1209.31185597
  Ewald energy   TEWEN  =    -24958.02151244
  -Hartree energ DENC   =     -9276.71462749
  -exchange      EXHF   =         0.00000000
  -V(xc)+E(xc)   XCENC  =      1290.07023873
  PAW double counting   =     37212.26376973   -40835.23134863
  entropy T*S    EENTRO =         0.00000000
  eigenvalues    EBANDS =     -7505.13788596
  atomic energy  EATOM  =     42573.64344421
  ---------------------------------------------------
  free energy    TOTEN  =      -289.81606589 eV

  energy without entropy =     -289.81606589  energy(sigma->0) =     -289.81606589


--------------------------------------------------------------------------------------------------------




----------------------------------------- Iteration    1(  18)  ---------------------------------------


    POTLOK:  cpu time    0.17: real time    0.17
    SETDIJ:  cpu time    0.21: real time    0.21
     EDDAV:  cpu time   15.20: real time   15.20
       DOS:  cpu time    0.00: real time    0.00
    CHARGE:  cpu time    1.02: real time    1.02
    MIXING:  cpu time    0.01: real time    0.01
    --------------------------------------------
      LOOP:  cpu time   16.61: real time   16.61

 eigenvalue-minimisations  :  1948
 total energy-change (2. order) :-0.5530455E-07  (-0.3973530E-09)
 number of electron     448.0000011 magnetization 
 augmentation part      107.3023417 magnetization 

 Broyden mixing:
  rms(total) = 0.11261E-03    rms(broyden)= 0.11260E-03
  rms(prec ) = 0.11330E-03
  weight for this iteration     100.00

 eigenvalues of (default mixing * dielectric matrix)
  average eigenvalue GAMMA=   1.5803
  2.8608  2.5821  2.5160  1.9476  1.9476  1.4573  1.4573  1.1600  1.1600  1.0148
  0.8520  0.8520  0.7368

 Free energy of the ion-electron system (eV)
  ---------------------------------------------------
  alpha Z        PSCENC =      1209.31185597
  Ewald energy   TEWEN  =    -24958.02151244
  -Hartree energ DENC   =     -9276.71566803
  -exchange      EXHF   =         0.00000000
  -V(xc)+E(xc)   XCENC  =      1290.07022024
  PAW double counting   =     37212.00265503   -40834.97051678
  entropy T*S    EENTRO =         0.00000000
  eigenvalues    EBANDS =     -7505.13654415
  atomic energy  EATOM  =     42573.64344421
  ---------------------------------------------------
  free energy    TOTEN  =      -289.81606594 eV

  energy without entropy =     -289.81606594  energy(sigma->0) =     -289.81606594


--------------------------------------------------------------------------------------------------------




----------------------------------------- Iteration    1(  19)  ---------------------------------------


    POTLOK:  cpu time    0.17: real time    0.17
    SETDIJ:  cpu time    0.21: real time    0.21
     EDDAV:  cpu time   15.27: real time   15.27
       DOS:  cpu time    0.00: real time    0.00
    CHARGE:  cpu time    1.00: real time    1.00
    MIXING:  cpu time    0.01: real time    0.01
    --------------------------------------------
      LOOP:  cpu time   16.67: real time   16.67

 eigenvalue-minimisations  :  1968
 total energy-change (2. order) :-0.1043882E-06  (-0.4246721E-09)
 number of electron     448.0000011 magnetization 
 augmentation part      107.3023534 magnetization 

 Broyden mixing:
  rms(total) = 0.16404E-04    rms(broyden)= 0.16362E-04
  rms(prec ) = 0.16753E-04
  weight for this iteration     100.00

 eigenvalues of (default mixing * dielectric matrix)
  average eigenvalue GAMMA=   1.6075
  2.2183  2.2183  2.8780  2.7376  2.4777  1.9615  1.2946  1.1367  1.1367  0.9172
  0.9172  0.9920  0.8713  0.7481

 Free energy of the ion-electron system (eV)
  ---------------------------------------------------
  alpha Z        PSCENC =      1209.31185597
  Ewald energy   TEWEN  =    -24958.02151244
  -Hartree energ DENC   =     -9276.71748503
  -exchange      EXHF   =         0.00000000
  -V(xc)+E(xc)   XCENC  =      1290.07020957
  PAW double counting   =     37211.54262508   -40834.51062750
  entropy T*S    EENTRO =         0.00000000
  eigenvalues    EBANDS =     -7505.13457590
  atomic energy  EATOM  =     42573.64344421
  ---------------------------------------------------
  free energy    TOTEN  =      -289.81606605 eV

  energy without entropy =     -289.81606605  energy(sigma->0) =     -289.81606605


--------------------------------------------------------------------------------------------------------




----------------------------------------- Iteration    1(  20)  ---------------------------------------


    POTLOK:  cpu time    0.17: real time    0.17
    SETDIJ:  cpu time    0.21: real time    0.21
     EDDAV:  cpu time   15.15: real time   15.14
       DOS:  cpu time    0.00: real time    0.00
    CHARGE:  cpu time    1.03: real time    1.03
    MIXING:  cpu time    0.01: real time    0.01
    --------------------------------------------
      LOOP:  cpu time   16.58: real time   16.57

 eigenvalue-minimisations  :  1936
 total energy-change (2. order) :-0.4712638E-07  (-0.2343984E-09)
 number of electron     448.0000011 magnetization 
 augmentation part      107.3023586 magnetization 

 Broyden mixing:
  rms(total) = 0.66761E-04    rms(broyden)= 0.66751E-04
  rms(prec ) = 0.67411E-04
  weight for this iteration     100.00

 eigenvalues of (default mixing * dielectric matrix)
  average eigenvalue GAMMA=   1.5449
  2.9209  2.7786  2.5037  2.3315  1.7892  1.7892  1.0990  1.0990  1.2560  1.1489
  1.1489  0.9761  0.8582  0.8582  0.6160

 Free energy of the ion-electron system (eV)
  ---------------------------------------------------
  alpha Z        PSCENC =      1209.31185597
  Ewald energy   TEWEN  =    -24958.02151244
  -Hartree energ DENC   =     -9276.71860656
  -exchange      EXHF   =         0.00000000
  -V(xc)+E(xc)   XCENC  =      1290.07019765
  PAW double counting   =     37211.24284724   -40834.21095133
  entropy T*S    EENTRO =         0.00000000
  eigenvalues    EBANDS =     -7505.13334084
  atomic energy  EATOM  =     42573.64344421
  ---------------------------------------------------
  free energy    TOTEN  =      -289.81606609 eV

  energy without entropy =     -289.81606609  energy(sigma->0) =     -289.81606609


--------------------------------------------------------------------------------------------------------




----------------------------------------- Iteration    1(  21)  ---------------------------------------


    POTLOK:  cpu time    0.17: real time    0.17
    SETDIJ:  cpu time    0.21: real time    0.21
     EDDAV:  cpu time   15.15: real time   15.14
       DOS:  cpu time    0.00: real time    0.00
    CHARGE:  cpu time    1.02: real time    1.02
    MIXING:  cpu time    0.01: real time    0.01
    --------------------------------------------
      LOOP:  cpu time   16.57: real time   16.56

 eigenvalue-minimisations  :  1944
 total energy-change (2. order) : 0.6073969E-07  (-0.8000247E-10)
 number of electron     448.0000011 magnetization 
 augmentation part      107.3023566 magnetization 

 Broyden mixing:
  rms(total) = 0.20916E-04    rms(broyden)= 0.20883E-04
  rms(prec ) = 0.21245E-04
  weight for this iteration     100.00

 eigenvalues of (default mixing * dielectric matrix)
  average eigenvalue GAMMA=   1.5313
  2.9412  2.6974  2.5275  2.2834  1.7986  1.7986  1.3332  1.3332  1.2667  1.1016
  1.1016  1.0411  0.9064  0.9064  0.7318  0.7318

 Free energy of the ion-electron system (eV)
  ---------------------------------------------------
  alpha Z        PSCENC =      1209.31185597
  Ewald energy   TEWEN  =    -24958.02151244
  -Hartree energ DENC   =     -9276.71827125
  -exchange      EXHF   =         0.00000000
  -V(xc)+E(xc)   XCENC  =      1290.07020890
  PAW double counting   =     37211.44921121   -40834.41709735
  entropy T*S    EENTRO =         0.00000000
  eigenvalues    EBANDS =     -7505.13390529
  atomic energy  EATOM  =     42573.64344421
  ---------------------------------------------------
  free energy    TOTEN  =      -289.81606603 eV

  energy without entropy =     -289.81606603  energy(sigma->0) =     -289.81606603


--------------------------------------------------------------------------------------------------------




----------------------------------------- Iteration    1(  22)  ---------------------------------------


    POTLOK:  cpu time    0.17: real time    0.17
    SETDIJ:  cpu time    0.21: real time    0.21
     EDDAV:  cpu time   15.05: real time   15.05
       DOS:  cpu time    0.00: real time    0.00
    CHARGE:  cpu time    0.99: real time    0.99
    MIXING:  cpu time    0.01: real time    0.01
    --------------------------------------------
      LOOP:  cpu time   16.44: real time   16.44

 eigenvalue-minimisations  :  1928
 total energy-change (2. order) : 0.3386958E-07  (-0.1066847E-09)
 number of electron     448.0000011 magnetization 
 augmentation part      107.3023511 magnetization 

 Broyden mixing:
  rms(total) = 0.10424E-04    rms(broyden)= 0.10357E-04
  rms(prec ) = 0.10484E-04
  weight for this iteration     100.00

 eigenvalues of (default mixing * dielectric matrix)
  average eigenvalue GAMMA=   1.4719
  2.9746  2.7393  2.5174  2.2223  1.6825  1.6825  1.3835  1.3835  1.2737  1.0939
  1.0939  1.0639  0.9480  0.8924  0.7822  0.7822  0.5059

 Free energy of the ion-electron system (eV)
  ---------------------------------------------------
  alpha Z        PSCENC =      1209.31185597
  Ewald energy   TEWEN  =    -24958.02151244
  -Hartree energ DENC   =     -9276.71789594
  -exchange      EXHF   =         0.00000000
  -V(xc)+E(xc)   XCENC  =      1290.07020188
  PAW double counting   =     37211.57246755   -40834.54026356
  entropy T*S    EENTRO =         0.00000000
  eigenvalues    EBANDS =     -7505.13436367
  atomic energy  EATOM  =     42573.64344421
  ---------------------------------------------------
  free energy    TOTEN  =      -289.81606600 eV

  energy without entropy =     -289.81606600  energy(sigma->0) =     -289.81606600


--------------------------------------------------------------------------------------------------------




----------------------------------------- Iteration    1(  23)  ---------------------------------------


    POTLOK:  cpu time    0.17: real time    0.17
    SETDIJ:  cpu time    0.21: real time    0.21
     EDDAV:  cpu time   15.17: real time   15.17
       DOS:  cpu time    0.00: real time    0.00
    CHARGE:  cpu time    1.02: real time    1.02
    MIXING:  cpu time    0.01: real time    0.01
    --------------------------------------------
      LOOP:  cpu time   16.58: real time   16.59

 eigenvalue-minimisations  :  1944
 total energy-change (2. order) :-0.1097942E-07  (-0.2581797E-10)
 number of electron     448.0000011 magnetization 
 augmentation part      107.3023510 magnetization 

 Broyden mixing:
  rms(total) = 0.47449E-05    rms(broyden)= 0.45952E-05
  rms(prec ) = 0.46749E-05
  weight for this iteration     100.00

 eigenvalues of (default mixing * dielectric matrix)
  average eigenvalue GAMMA=   1.4687
  3.0584  2.7784  2.4162  1.8881  1.8881  1.4146  1.4146  1.5526  1.5526  1.3430
  1.1267  1.1267  1.0092  0.9294  0.9294  0.8312  0.6559  0.5217

 Free energy of the ion-electron system (eV)
  ---------------------------------------------------
  alpha Z        PSCENC =      1209.31185597
  Ewald energy   TEWEN  =    -24958.02151244
  -Hartree energ DENC   =     -9276.71804560
  -exchange      EXHF   =         0.00000000
  -V(xc)+E(xc)   XCENC  =      1290.07020349
  PAW double counting   =     37211.53691150   -40834.50474300
  entropy T*S    EENTRO =         0.00000000
  eigenvalues    EBANDS =     -7505.13418014
  atomic energy  EATOM  =     42573.64344421
  ---------------------------------------------------
  free energy    TOTEN  =      -289.81606601 eV

  energy without entropy =     -289.81606601  energy(sigma->0) =     -289.81606601


--------------------------------------------------------------------------------------------------------




----------------------------------------- Iteration    1(  24)  ---------------------------------------


    POTLOK:  cpu time    0.17: real time    0.17
    SETDIJ:  cpu time    0.21: real time    0.21
     EDDAV:  cpu time   15.04: real time   15.04
       DOS:  cpu time    0.00: real time    0.00
    --------------------------------------------
      LOOP:  cpu time   15.43: real time   15.43

 eigenvalue-minimisations  :  1928
 total energy-change (2. order) :-0.6337359E-08  (-0.1530887E-10)
 number of electron     448.0000011 magnetization 
 augmentation part      107.3023510 magnetization 

 Free energy of the ion-electron system (eV)
  ---------------------------------------------------
  alpha Z        PSCENC =      1209.31185597
  Ewald energy   TEWEN  =    -24958.02151244
  -Hartree energ DENC   =     -9276.71810566
  -exchange      EXHF   =         0.00000000
  -V(xc)+E(xc)   XCENC  =      1290.07020448
  PAW double counting   =     37211.51539566   -40834.48323688
  entropy T*S    EENTRO =         0.00000000
  eigenvalues    EBANDS =     -7505.13411135
  atomic energy  EATOM  =     42573.64344421
  ---------------------------------------------------
  free energy    TOTEN  =      -289.81606602 eV

  energy without entropy =     -289.81606602  energy(sigma->0) =     -289.81606602


--------------------------------------------------------------------------------------------------------




 average (electrostatic) potential at core
  the test charge radii are     0.8294  0.9698
  (the norm of the test charge is              1.0000)
       1 -42.6993       2 -42.6994       3 -42.6993       4 -42.6994       5 -42.6993
       6 -42.6994       7 -42.6994       8 -42.6994       9 -42.6994      10 -42.6994
      11 -42.6994      12 -42.6994      13 -42.6994      14 -42.6994      15 -42.6994
      16 -42.6994      17 -42.7013      18 -42.6975      19 -42.6998      20 -42.6990
      21 -42.7013      22 -42.6975      23 -42.6998      24 -42.6990      25 -42.7013
      26 -42.6975      27 -42.7013      28 -42.6975      29 -42.6998      30 -42.6990
      31 -42.6998      32 -42.6990      33 -86.3948      34 -86.3749      35 -86.3845
      36 -86.3852      37 -86.3845      38 -86.3852      39 -86.3854      40 -86.3843
      41 -86.3857      42 -86.3840      43 -86.3857      44 -86.3840      45 -86.3857
      46 -86.3840      47 -86.3857      48 -86.3840      49 -86.3848      50 -86.3848
      51 -86.3848      52 -86.3848      53 -86.3848      54 -86.3848      55 -86.3848
      56 -86.3848      57 -86.3848      58 -86.3848      59 -86.3848      60 -86.3848
      61 -86.3848      62 -86.3848      63 -86.3848      64 -86.3848
 
 
 
 E-fermi :   3.6130     XC(G=0): -10.0271     alpha+bet :-10.4970


 k-point     1 :       0.0000    0.0000    0.0000
  band No.  band energies     occupation 
      1     -37.7518      2.00000
      2     -37.7517      2.00000
      3     -37.7513      2.00000
      4     -37.7513      2.00000
      5     -37.7509      2.00000
      6     -37.7509      2.00000
      7     -37.7508      2.00000
      8     -37.7497      2.00000
      9     -37.7497      2.00000
     10     -37.7496      2.00000
     11     -37.7496      2.00000
     12     -37.7496      2.00000
     13     -37.7495      2.00000
     14     -37.7495      2.00000
     15     -37.7494      2.00000
     16     -37.7492      2.00000
     17     -37.7492      2.00000
     18     -37.7491      2.00000
     19     -37.7491      2.00000
     20     -37.7491      2.00000
     21     -37.7490      2.00000
     22     -37.7487      2.00000
     23     -37.7486      2.00000
     24     -37.7485      2.00000
     25     -37.7485      2.00000
     26     -37.7484      2.00000
     27     -37.7484      2.00000
     28     -37.7484      2.00000
     29     -37.7484      2.00000
     30     -37.7483      2.00000
     31     -37.7483      2.00000
     32     -37.7477      2.00000
     33     -37.7475      2.00000
     34     -37.7475      2.00000
     35     -37.7475      2.00000
     36     -37.7475      2.00000
     37     -37.7474      2.00000
     38     -37.7474      2.00000
     39     -37.7473      2.00000
     40     -37.7473      2.00000
     41     -37.7472      2.00000
     42     -37.7472      2.00000
     43     -37.7471      2.00000
     44     -37.7469      2.00000
     45     -37.7469      2.00000
     46     -37.7469      2.00000
     47     -37.7469      2.00000
     48     -37.7469      2.00000
     49     -37.7469      2.00000
     50     -37.7469      2.00000
     51     -37.7469      2.00000
     52     -37.7469      2.00000
     53     -37.7468      2.00000
     54     -37.7468      2.00000
     55     -37.7467      2.00000
     56     -37.7467      2.00000
     57     -37.7467      2.00000
     58     -37.7467      2.00000
     59     -37.7463      2.00000
     60     -37.7463      2.00000
     61     -37.7459      2.00000
     62     -37.7459      2.00000
     63     -37.7459      2.00000
     64     -37.7457      2.00000
[...]
 total augmentation occupancy for first ion, spin component:           1
  2.002   0.000   0.000   0.000   0.000   0.000   0.000   0.000   0.000   0.000   0.000   0.000   0.000
  0.000   2.002   0.000   0.000   0.000   0.000   0.000   0.000   0.000   0.000   0.000   0.000   0.000
  0.000   0.000   2.002   0.000   0.000   0.000   0.000   0.000   0.000   0.000   0.000   0.000   0.000
  0.000   0.000   0.000   0.057   0.000   0.000   0.000   0.000   0.000   0.000   0.000   0.000   0.000
  0.000   0.000   0.000   0.000   0.057   0.000   0.000   0.000   0.000   0.000   0.000   0.000   0.000
  0.000   0.000   0.000   0.000   0.000   0.057   0.002   0.000   0.000   0.000   0.000   0.000   0.001
  0.000   0.000   0.000   0.000   0.000   0.002   0.793   0.011   0.000   0.000   0.000   0.000   0.000
  0.000   0.000   0.000   0.000   0.000   0.000   0.011   0.000   0.000   0.000   0.000   0.000   0.000
  0.000   0.000   0.000   0.000   0.000   0.000   0.000   0.000   0.006   0.000   0.000   0.000   0.000
  0.000   0.000   0.000   0.000   0.000   0.000   0.000   0.000   0.000   0.006   0.000   0.000   0.000
  0.000   0.000   0.000   0.000   0.000   0.000   0.000   0.000   0.000   0.000   0.028   0.000   0.000
  0.000   0.000   0.000   0.000   0.000   0.000   0.000   0.000   0.000   0.000   0.000   0.006   0.000
  0.000   0.000   0.000   0.000   0.000   0.001   0.000   0.000   0.000   0.000   0.000   0.000   0.028


------------------------ aborting loop because EDIFF is reached ----------------------------------------


    CHARGE:  cpu time    1.00: real time    1.00
    FORLOC:  cpu time    0.06: real time    0.06
    FORNL :  cpu time   12.88: real time   12.88
    STRESS:  cpu time   19.99: real time   19.98
    FORCOR:  cpu time    0.23: real time    0.24
    FORHAR:  cpu time    0.10: real time    0.10
    MIXING:  cpu time    0.01: real time    0.01
    OFIELD:  cpu time    0.00: real time    0.00

  FORCE on cell =-STRESS in cart. coord.  units (eV):
  Direction    XX          YY          ZZ          XY          YZ          ZX
  --------------------------------------------------------------------------------------
  Alpha Z  1209.31186  1209.31186  1209.31186
  Ewald   -8319.37784 -8319.39602 -8319.39602     0.00000     0.00000     0.00000
  Hartree  3092.24125  3092.23841  3092.23841     0.00000     0.00000     0.00000
  E(xc)   -2118.68010 -2118.68008 -2118.68008     0.00000     0.00000     0.00000
  Local     -80.57394   -80.55391   -80.55391     0.00000     0.00000     0.00000
  n-local   294.02099   293.80656   294.23254     0.00000     0.00000     0.00000
  augment   261.13248   261.13259   261.13243     0.00000    -0.00005    -0.00005
  Kinetic  5656.51909  5656.86119  5656.17660     0.00000     0.00000     0.00000
  Fock        0.00000     0.00000     0.00000     0.00000     0.00000     0.00000
  -------------------------------------------------------------------------------------
  Total      -5.40621    -5.40878    -5.40878     0.00000     0.00000     0.00000
  in kB      -7.70829    -7.71195    -7.71195     0.00000     0.00000     0.00000
  external pressure =       -7.71 kB  Pullay stress =        0.00 kB


 VOLUME and BASIS-vectors are now :
 -----------------------------------------------------------------------------
  energy-cutoff  :      525.11
  volume of cell :     1123.69
      direct lattice vectors                 reciprocal lattice vectors
    10.396370980  0.000000000  0.000000000     0.096187410  0.000000000  0.000000000
     0.000000000 10.396370980  0.000000000     0.000000000  0.096187410  0.000000000
     0.000000000  0.000000000 10.396370980     0.000000000  0.000000000  0.096187410

  length of vectors
    10.396370980 10.396370980 10.396370980     0.096187410  0.096187410  0.096187410


 FORCES acting on ions
    electron-ion (+dipol)            ewald-force                    non-local-force                 convergence-correction
 -----------------------------------------------------------------------------------------------
   0.196E+01 0.562E-14 -.182E-05   -.189E+01 0.417E-13 -.103E-13   -.113E+00 0.132E-22 -.372E-23   0.337E-06 0.664E-13 -.256E-13
   -.217E+00 0.408E-13 0.172E-05   0.281E+00 0.249E-13 -.322E-13   -.531E-01 0.000E+00 0.119E-23   -.415E-06 0.786E-13 -.422E-13
   0.938E-01 -.976E-15 0.246E-10   -.890E-01 0.249E-13 -.126E-13   -.353E-02 0.000E+00 -.258E-25   0.529E-07 -.216E-12 -.195E-13
   -.731E-01 -.471E-11 0.278E-10   0.699E-01 0.249E-13 -.144E-13   0.253E-02 0.000E+00 0.000E+00   -.281E-06 -.227E-12 -.299E-13
   0.938E-01 -.653E-14 -.317E-08   -.890E-01 0.302E-13 0.890E-15   -.353E-02 0.000E+00 0.000E+00   0.529E-07 0.761E-13 -.122E-12
   -.731E-01 -.732E-14 -.317E-08   0.699E-01 0.284E-13 0.444E-14   0.253E-02 0.000E+00 -.129E-25   -.281E-06 0.605E-13 -.105E-12
   0.347E-01 0.953E-14 0.252E-11   -.367E-01 0.409E-13 -.169E-13   0.155E-02 0.000E+00 0.000E+00   0.219E-06 -.224E-12 -.117E-12
   -.323E-01 -.613E-11 0.577E-11   0.344E-01 0.284E-13 -.133E-13   -.156E-02 0.000E+00 0.000E+00   -.211E-06 -.211E-12 -.129E-12
   0.164E+00 0.488E-03 0.488E-03   -.168E+00 -.508E-03 -.508E-03   0.244E-02 0.139E-04 0.139E-04   0.108E-06 0.150E-07 0.150E-07
   -.913E-01 -.147E-03 -.147E-03   0.944E-01 0.152E-03 0.152E-03   -.235E-02 -.367E-05 -.367E-05   -.167E-06 0.639E-07 0.639E-07
   0.164E+00 -.488E-03 0.488E-03   -.168E+00 0.508E-03 -.508E-03   0.244E-02 -.139E-04 0.139E-04   0.108E-06 -.150E-07 0.150E-07
   -.913E-01 0.147E-03 -.147E-03   0.944E-01 -.152E-03 0.152E-03   -.235E-02 0.367E-05 -.367E-05   -.167E-06 -.639E-07 0.639E-07
   0.164E+00 0.488E-03 -.488E-03   -.168E+00 -.508E-03 0.508E-03   0.244E-02 0.139E-04 -.139E-04   0.108E-06 0.150E-07 -.150E-07
   -.913E-01 -.147E-03 0.147E-03   0.944E-01 0.152E-03 -.152E-03   -.235E-02 -.367E-05 0.367E-05   -.167E-06 0.639E-07 -.639E-07
   0.164E+00 -.488E-03 -.488E-03   -.168E+00 0.508E-03 0.508E-03   0.244E-02 -.139E-04 -.139E-04   0.108E-06 -.150E-07 -.150E-07
   -.913E-01 0.147E-03 0.147E-03   0.944E-01 -.152E-03 -.152E-03   -.235E-02 0.367E-05 0.367E-05   -.167E-06 -.639E-07 -.639E-07
   -.134E+00 -.314E-13 -.235E+00   0.135E+00 -.142E-13 0.259E+00   -.382E-03 0.258E-25 -.182E-01   0.950E-07 0.717E-13 -.308E-06
   -.135E+00 -.137E-13 0.234E+00   0.136E+00 -.142E-13 -.258E+00   -.421E-03 -.258E-25 0.181E-01   -.182E-07 0.752E-13 -.985E-07
   -.420E-02 -.865E-13 -.235E-01   0.416E-02 -.178E-13 0.213E-01   0.319E-04 0.000E+00 0.168E-02   0.149E-06 -.240E-12 -.342E-07
   -.452E-02 -.132E-12 0.235E-01   0.449E-02 -.320E-13 -.213E-01   0.218E-04 0.000E+00 -.167E-02   -.353E-07 -.232E-12 -.893E-07
   -.134E+00 -.251E-13 0.235E+00   0.135E+00 -.231E-13 -.259E+00   -.382E-03 -.388E-25 0.182E-01   0.950E-07 0.893E-13 0.308E-06
   -.135E+00 0.477E-14 -.234E+00   0.136E+00 -.124E-13 0.258E+00   -.421E-03 -.517E-25 -.181E-01   -.182E-07 0.772E-13 0.985E-07
   -.420E-02 0.185E-11 0.235E-01   0.416E-02 -.142E-13 -.213E-01   0.319E-04 0.000E+00 -.168E-02   0.149E-06 -.256E-12 0.342E-07
   -.452E-02 -.771E-11 -.235E-01   0.449E-02 -.284E-13 0.213E-01   0.218E-04 -.129E-25 0.167E-02   -.353E-07 -.232E-12 0.893E-07
   -.134E+00 -.235E+00 0.890E-10   0.135E+00 0.259E+00 0.158E-13   -.382E-03 -.182E-01 0.129E-25   0.950E-07 -.308E-06 -.303E-13
   -.135E+00 0.234E+00 0.827E-10   0.136E+00 -.258E+00 0.122E-13   -.421E-03 0.181E-01 0.000E+00   -.182E-07 -.985E-07 -.140E-13
   -.134E+00 0.235E+00 0.877E-10   0.135E+00 -.259E+00 0.336E-13   -.382E-03 0.182E-01 0.129E-25   0.950E-07 0.308E-06 -.251E-13
   -.135E+00 -.234E+00 0.886E-10   0.136E+00 0.258E+00 0.194E-13   -.421E-03 -.181E-01 0.258E-25   -.182E-07 0.985E-07 -.228E-13
   -.420E-02 -.235E-01 0.508E-11   0.416E-02 0.213E-01 0.364E-13   0.319E-04 0.168E-02 0.000E+00   0.149E-06 -.342E-07 -.102E-12
   -.452E-02 0.235E-01 -.922E-12   0.449E-02 -.213E-01 0.364E-13   0.218E-04 -.167E-02 0.258E-25   -.353E-07 -.893E-07 -.134E-12
   -.420E-02 0.235E-01 0.579E-11   0.416E-02 -.213E-01 0.275E-13   0.319E-04 -.168E-02 0.000E+00   0.149E-06 0.342E-07 -.125E-12
   -.452E-02 -.235E-01 -.226E-11   0.449E-02 0.213E-01 0.133E-13   0.218E-04 0.167E-02 0.000E+00   -.353E-07 0.893E-07 -.145E-12
   -.836E+00 0.284E-13 -.469E-06   0.833E+00 0.213E-13 -.205E-14   0.167E-01 0.414E-24 0.000E+00   0.247E-06 0.861E-13 -.153E-14
   -.826E+00 0.676E-13 -.469E-06   0.824E+00 0.213E-13 -.198E-13   0.151E-01 0.000E+00 -.207E-24   0.182E-07 0.934E-13 0.142E-13
   -.734E-02 0.438E-11 -.640E-11   0.692E-02 0.169E-13 -.294E-14   0.886E-03 -.207E-24 0.452E-25   0.110E-06 -.173E-12 0.126E-13
   -.768E-02 -.480E-11 -.149E-10   0.726E-02 0.240E-13 0.255E-13   0.870E-03 0.000E+00 0.207E-24   0.122E-07 -.175E-12 0.258E-13
   -.734E-02 0.243E-13 -.226E-08   0.692E-02 0.142E-13 0.156E-13   0.886E-03 0.000E+00 -.103E-24   0.110E-06 0.862E-13 -.884E-13
   -.768E-02 0.443E-13 -.228E-08   0.726E-02 0.142E-13 0.156E-13   0.870E-03 0.310E-24 0.000E+00   0.122E-07 0.860E-13 -.969E-13
   -.824E-03 0.989E-12 0.233E-11   0.811E-03 0.107E-13 0.143E-14   0.825E-05 -.517E-25 0.000E+00   0.178E-06 -.172E-12 -.957E-13
   -.982E-03 -.180E-11 -.264E-12   0.972E-03 0.178E-13 0.143E-14   0.234E-05 0.000E+00 0.000E+00   -.112E-06 -.168E-12 -.103E-12
   -.255E-01 -.645E-01 -.645E-01   0.255E-01 0.654E-01 0.654E-01   -.310E-04 -.192E-02 -.192E-02   0.102E-06 -.876E-07 -.876E-07
   -.260E-01 0.643E-01 0.643E-01   0.260E-01 -.652E-01 -.652E-01   -.454E-04 0.190E-02 0.190E-02   -.142E-06 -.522E-07 -.522E-07
   -.255E-01 0.645E-01 -.645E-01   0.255E-01 -.654E-01 0.654E-01   -.310E-04 0.192E-02 -.192E-02   0.102E-06 0.876E-07 -.876E-07
   -.260E-01 -.643E-01 0.643E-01   0.260E-01 0.652E-01 -.652E-01   -.454E-04 -.190E-02 0.190E-02   -.142E-06 0.522E-07 -.522E-07
   -.255E-01 -.645E-01 0.645E-01   0.255E-01 0.654E-01 -.654E-01   -.310E-04 -.192E-02 0.192E-02   0.102E-06 -.876E-07 0.876E-07
   -.260E-01 0.643E-01 -.643E-01   0.260E-01 -.652E-01 0.652E-01   -.454E-04 0.190E-02 -.190E-02   -.142E-06 -.522E-07 0.522E-07
   -.255E-01 0.645E-01 0.645E-01   0.255E-01 -.654E-01 -.654E-01   -.310E-04 0.192E-02 0.192E-02   0.102E-06 0.876E-07 0.876E-07
   -.260E-01 -.643E-01 -.643E-01   0.260E-01 0.652E-01 0.652E-01   -.454E-04 -.190E-02 -.190E-02   -.142E-06 0.522E-07 0.522E-07
   0.370E+00 0.319E-13 0.226E-02   -.375E+00 -.266E-14 -.224E-02   0.836E-02 0.103E-24 -.641E-04   0.156E-06 0.850E-13 0.772E-09
   -.112E+00 0.168E-13 -.227E-03   0.115E+00 -.355E-14 0.232E-03   -.516E-02 -.207E-24 -.654E-05   -.133E-06 0.917E-13 -.122E-06
   0.444E-01 0.119E-12 0.546E-04   -.447E-01 -.888E-15 -.585E-04   0.717E-03 -.207E-24 0.826E-05   0.135E-06 -.166E-12 -.733E-07
   -.379E-01 -.918E-12 -.396E-04   0.382E-01 0.000E+00 0.402E-04   -.749E-03 0.103E-24 -.359E-06   -.152E-06 -.173E-12 -.419E-07
   0.370E+00 0.328E-13 -.226E-02   -.375E+00 -.355E-14 0.224E-02   0.836E-02 -.194E-25 0.641E-04   0.156E-06 0.935E-13 -.772E-09
   -.112E+00 0.290E-13 0.227E-03   0.115E+00 -.711E-14 -.232E-03   -.516E-02 -.207E-24 0.654E-05   -.133E-06 0.935E-13 0.122E-06
   0.444E-01 0.563E-15 -.546E-04   -.447E-01 0.000E+00 0.585E-04   0.717E-03 0.000E+00 -.826E-05   0.135E-06 -.174E-12 0.733E-07
   -.379E-01 -.572E-11 0.396E-04   0.382E-01 -.711E-14 -.402E-04   -.749E-03 0.000E+00 0.359E-06   -.152E-06 -.174E-12 0.419E-07
   0.370E+00 0.226E-02 -.554E-11   -.375E+00 -.224E-02 -.257E-13   0.836E-02 -.641E-04 0.000E+00   0.156E-06 0.772E-09 0.122E-13
   -.112E+00 -.227E-03 -.101E-11   0.115E+00 0.232E-03 -.399E-13   -.516E-02 -.654E-05 0.414E-24   -.133E-06 -.122E-06 0.235E-14
   0.370E+00 -.226E-02 -.553E-11   -.375E+00 0.224E-02 -.248E-13   0.836E-02 0.641E-04 0.000E+00   0.156E-06 -.772E-09 0.229E-13
   -.112E+00 0.227E-03 0.354E-11   0.115E+00 -.232E-03 -.256E-13   -.516E-02 0.654E-05 0.414E-24   -.133E-06 0.122E-06 0.734E-14
   0.444E-01 0.546E-04 0.581E-12   -.447E-01 -.585E-04 -.250E-13   0.717E-03 0.826E-05 0.000E+00   0.135E-06 -.733E-07 -.959E-13
   -.379E-01 -.396E-04 0.130E-11   0.382E-01 0.402E-04 -.989E-14   -.749E-03 -.359E-06 0.000E+00   -.152E-06 -.419E-07 -.905E-13
   0.444E-01 -.546E-04 0.464E-12   -.447E-01 0.585E-04 -.152E-13   0.717E-03 -.826E-05 0.258E-25   0.135E-06 0.733E-07 -.102E-12
   -.379E-01 0.396E-04 0.191E-12   0.382E-01 -.402E-04 -.276E-13   -.749E-03 0.359E-06 0.000E+00   -.152E-06 0.419E-07 -.880E-13
 -----------------------------------------------------------------------------------------------
   0.123E+00 -.234E-10 -.107E-05   -.678E-13 -.582E-13 -.977E-13   -.123E+00 -.369E-17 -.720E-20   0.436E-06 -.360E-12 -.184E-12
 
 
 POSITION                                       TOTAL-FORCE (eV/Angst)
 -----------------------------------------------------------------------------------
      0.01000      0.00000      0.00000        -0.046771      0.000000      0.000000
      5.19819      0.00000      0.00000         0.010856      0.000000      0.000000
      0.00000      5.19819      0.00000         0.001257      0.000000      0.000000
      5.19819      5.19819      0.00000        -0.000673      0.000000      0.000000
      0.00000      0.00000      5.19819         0.001257      0.000000      0.000000
      5.19819      0.00000      5.19819        -0.000673      0.000000      0.000000
      0.00000      5.19819      5.19819        -0.000492      0.000000      0.000000
      5.19819      5.19819      5.19819         0.000480      0.000000      0.000000
      0.00000      2.59909      2.59909        -0.000983     -0.000005     -0.000005
      5.19819      2.59909      2.59909         0.000730      0.000001      0.000001
      0.00000      7.79728      2.59909        -0.000983      0.000005     -0.000005
      5.19819      7.79728      2.59909         0.000730     -0.000001      0.000001
      0.00000      2.59909      7.79728        -0.000983     -0.000005      0.000005
      5.19819      2.59909      7.79728         0.000730      0.000001     -0.000001
      0.00000      7.79728      7.79728        -0.000983      0.000005      0.000005
      5.19819      7.79728      7.79728         0.000730     -0.000001     -0.000001
      2.59909      0.00000      2.59909         0.000880      0.000000      0.006128
      7.79728      0.00000      2.59909         0.000878      0.000000     -0.006084
      2.59909      5.19819      2.59909        -0.000013      0.000000     -0.000515
      7.79728      5.19819      2.59909        -0.000010      0.000000      0.000512
      2.59909      0.00000      7.79728         0.000880      0.000000     -0.006128
      7.79728      0.00000      7.79728         0.000878      0.000000      0.006084
      2.59909      5.19819      7.79728        -0.000013      0.000000      0.000515
      7.79728      5.19819      7.79728        -0.000010      0.000000     -0.000512
      2.59909      2.59909      0.00000         0.000880      0.006128      0.000000
      7.79728      2.59909      0.00000         0.000878     -0.006084      0.000000
      2.59909      7.79728      0.00000         0.000880     -0.006128      0.000000
      7.79728      7.79728      0.00000         0.000878      0.006084      0.000000
      2.59909      2.59909      5.19819        -0.000013     -0.000515      0.000000
      7.79728      2.59909      5.19819        -0.000010      0.000512      0.000000
      2.59909      7.79728      5.19819        -0.000013      0.000515      0.000000
      7.79728      7.79728      5.19819        -0.000010     -0.000512      0.000000
      2.59909      0.00000      0.00000         0.013438      0.000000      0.000000
      7.79728      0.00000      0.00000         0.012339      0.000000      0.000000
      2.59909      5.19819      0.00000         0.000461      0.000000      0.000000
      7.79728      5.19819      0.00000         0.000452      0.000000      0.000000
      2.59909      0.00000      5.19819         0.000461      0.000000      0.000000
      7.79728      0.00000      5.19819         0.000452      0.000000      0.000000
      2.59909      5.19819      5.19819        -0.000007      0.000000      0.000000
      7.79728      5.19819      5.19819        -0.000010      0.000000      0.000000
      2.59909      2.59909      2.59909        -0.000016     -0.000961     -0.000961
      7.79728      2.59909      2.59909        -0.000024      0.000954      0.000954
      2.59909      7.79728      2.59909        -0.000016      0.000961     -0.000961
      7.79728      7.79728      2.59909        -0.000024     -0.000954      0.000954
      2.59909      2.59909      7.79728        -0.000016     -0.000961      0.000961
      7.79728      2.59909      7.79728        -0.000024      0.000954     -0.000954
      2.59909      7.79728      7.79728        -0.000016      0.000961      0.000961
      7.79728      7.79728      7.79728        -0.000024     -0.000954     -0.000954
      0.00000      0.00000      2.59909         0.003062      0.000000     -0.000042
      5.19819      0.00000      2.59909        -0.002653      0.000000     -0.000002
      0.00000      5.19819      2.59909         0.000361      0.000000      0.000004
      5.19819      5.19819      2.59909        -0.000420      0.000000      0.000000
      0.00000      0.00000      7.79728         0.003062      0.000000      0.000042
      5.19819      0.00000      7.79728        -0.002653      0.000000      0.000002
      0.00000      5.19819      7.79728         0.000361      0.000000     -0.000004
      5.19819      5.19819      7.79728        -0.000420      0.000000      0.000000
      0.00000      2.59909      0.00000         0.003062     -0.000042      0.000000
      5.19819      2.59909      0.00000        -0.002653     -0.000002      0.000000
      0.00000      7.79728      0.00000         0.003062      0.000042      0.000000
      5.19819      7.79728      0.00000        -0.002653      0.000002      0.000000
      0.00000      2.59909      5.19819         0.000361      0.000004      0.000000
      5.19819      2.59909      5.19819        -0.000420      0.000000      0.000000
      0.00000      7.79728      5.19819         0.000361     -0.000004      0.000000
      5.19819      7.79728      5.19819        -0.000420      0.000000      0.000000
 -----------------------------------------------------------------------------------
    total drift:                                0.000154      0.000000     -0.000001


--------------------------------------------------------------------------------------------------------



  FREE ENERGIE OF THE ION-ELECTRON SYSTEM (eV)
  ---------------------------------------------------
  free  energy   TOTEN  =      -289.81606602 eV

  energy  without entropy=     -289.81606602  energy(sigma->0) =     -289.81606602
 


--------------------------------------------------------------------------------------------------------


    POTLOK:  cpu time    0.39: real time    0.39


--------------------------------------------------------------------------------------------------------


     LOOP+:  cpu time  562.51: real time  562.64
    4ORBIT:  cpu time    0.00: real time    0.00

 total amount of memory used by VASP on root node   133490. kBytes
========================================================================

   base      :      30000. kBytes
   nonl-proj :      14031. kBytes
   fftplans  :      33043. kBytes
   grid      :      15687. kBytes
   one-center:        105. kBytes
   wavefun   :      40624. kBytes
 
  
  
 General timing and accounting informations for this job:
 ========================================================
  
                  Total CPU time used (sec):      570.385
                            User time (sec):      554.935
                          System time (sec):       15.451
                         Elapsed time (sec):      570.742
  
                   Maximum memory used (kb):      192212.
                   Average memory used (kb):           0.
  
                          Minor page faults:      8100553
                          Major page faults:            0
                 Voluntary context switches:         2104
