<?xml version="1.0" encoding="ISO-8859-1"?>
<modeling>
 <generator>
  <i name="program" type="string">vasp </i>
  <i name="version" type="string">5.3.5  </i>
  <i name="subversion" type="string">31Mar14 (build Nov 07 2014 11:36:17) complex                          parallel </i>
  <i name="platform" type="string">LinuxIFC </i>
  <i name="date" type="string">2015 10 15 </i>
  <i name="time" type="string">02:20:31 </i>
 </generator>
 <incar>
  <i type="string" name="PREC">accurate</i>
  <i type="int" name="IALGO">    38</i>
  <i type="logical" name="ADDGRID"> T  </i>
  <i type="int" name="NELMIN">     5</i>
  <i type="int" name="IBRION">    -1</i>
  <i name="EDIFF">      0.00000001</i>
  <i name="ENCUT">    525.10770000</i>
  <i type="logical" name="LREAL"> F  </i>
  <i type="int" name="ISMEAR">     0</i>
  <i name="SIGMA">      0.01000000</i>
  <i type="logical" name="LWAVE"> F  </i>
  <i type="logical" name="LCHARG"> F  </i>
  <i type="string" name="GGA"> PS</i>
 </incar>
 <kpoints>
  <generation param="Gamma">
   <v type="int" name="divisions">       2        2        2 </v>
   <v name="usershift">      0.00000000       0.00000000       0.00000000 </v>
   <v name="genvec1">      0.50000000       0.00000000       0.00000000 </v>
   <v name="genvec2">      0.00000000       0.50000000       0.00000000 </v>
   <v name="genvec3">      0.00000000       0.00000000       0.50000000 </v>
   <v name="shift">      0.00000000       0.00000000       0.00000000 </v>
  </generation>
  <varray name="kpointlist" >
   <v>       0.00000000       0.00000000       0.00000000 </v>
   <v>       0.50000000       0.00000000       0.00000000 </v>
   <v>       0.00000000       0.50000000       0.00000000 </v>
   <v>       0.50000000       0.50000000       0.00000000 </v>
   <v>       0.00000000       0.50000000       0.50000000 </v>
   <v>       0.50000000       0.50000000       0.50000000 </v>
  </varray>
  <varray name="weights" >
   <v>       0.12500000 </v>
   <v>       0.12500000 </v>
   <v>       0.25000000 </v>
   <v>       0.25000000 </v>
   <v>       0.12500000 </v>
   <v>       0.12500000 </v>
  </varray>
 </kpoints>
 <parameters>
  <separator name="general" >
   <i type="string" name="SYSTEM">unknown system</i>
   <i type="logical" name="LCOMPAT"> F  </i>
  </separator>
  <separator name="electronic" >
   <i type="string" name="PREC">accura</i>
   <i name="ENMAX">    525.10770000</i>
   <i name="ENAUG">    758.78000000</i>
   <i name="EDIFF">      0.00000001</i>
   <i type="int" name="IALGO">    38</i>
   <i type="int" name="IWAVPR">    10</i>
   <i type="int" name="NBANDS">   268</i>
   <i name="NELECT">    448.00000000</i>
   <i type="int" name="TURBO">     0</i>
   <i type="int" name="IRESTART">     0</i>
   <i type="int" name="NREBOOT">     0</i>
   <i type="int" name="NMIN">     0</i>
   <i name="EREF">      0.00000000</i>
   <separator name="electronic smearing" >
    <i type="int" name="ISMEAR">     0</i>
    <i name="SIGMA">      0.01000000</i>
    <i name="KSPACING">      0.50000000</i>
    <i type="logical" name="KGAMMA"> T  </i>
   </separator>
   <separator name="electronic projectors" >
    <i type="logical" name="LREAL"> F  </i>
    <v name="ROPT">      0.00000000      0.00000000</v>
    <i type="int" name="LMAXPAW">  -100</i>
    <i type="int" name="LMAXMIX">     2</i>
    <i type="logical" name="NLSPLINE"> F  </i>
   </separator>
   <separator name="electronic startup" >
    <i type="int" name="ISTART">     0</i>
    <i type="int" name="ICHARG">     2</i>
    <i type="int" name="INIWAV">     1</i>
   </separator>
   <separator name="electronic spin" >
    <i type="int" name="ISPIN">     1</i>
    <i type="logical" name="LNONCOLLINEAR"> F  </i>
    <v name="MAGMOM">      1.00000000      1.00000000      1.00000000      1.00000000      1.00000000      1.00000000      1.00000000      1.00000000      1.00000000      1.00000000      1.00000000      1.00000000      1.00000000      1.00000000      1.00000000      1.00000000      1.00000000      1.00000000      1.00000000      1.00000000
      1.00000000      1.00000000      1.00000000      1.00000000      1.00000000      1.00000000      1.00000000      1.00000000      1.00000000      1.00000000      1.00000000      1.00000000      1.00000000      1.00000000      1.00000000      1.00000000      1.00000000      1.00000000      1.00000000      1.00000000
      1.00000000      1.00000000      1.00000000      1.00000000      1.00000000      1.00000000      1.00000000      1.00000000      1.00000000      1.00000000      1.00000000      1.00000000      1.00000000      1.00000000      1.00000000      1.00000000      1.00000000      1.00000000      1.00000000      1.00000000
      1.00000000      1.00000000      1.00000000      1.00000000</v>
    <i name="NUPDOWN">     -1.00000000</i>
    <i type="logical" name="LSORBIT"> F  </i>
    <v name="SAXIS">      0.00000000      0.00000000      1.00000000</v>
    <i type="logical" name="LSPIRAL"> F  </i>
    <v name="QSPIRAL">      0.00000000      0.00000000      0.00000000</v>
    <i type="logical" name="LZEROZ"> F  </i>
   </separator>
   <separator name="electronic exchange-correlation" >
    <i type="logical" name="LASPH"> F  </i>
    <i type="logical" name="LMETAGGA"> F  </i>
   </separator>
   <separator name="electronic convergence" >
    <i type="int" name="NELM">    60</i>
    <i type="int" name="NELMDL">    -5</i>
    <i type="int" name="NELMIN">     5</i>
    <i name="ENINI">    525.10770000</i>
    <separator name="electronic convergence detail" >
     <i type="logical" name="LDIAG"> T  </i>
     <i type="logical" name="LSUBROT"> F  </i>
     <i name="WEIMIN">      0.00000000</i>
     <i name="EBREAK">      0.00000000</i>
     <i name="DEPER">      0.30000000</i>
     <i type="int" name="NRMM">     4</i>
     <i name="TIME">      0.40000000</i>
    </separator>
   </separator>
   <separator name="electronic mixer" >
    <i name="AMIX">      0.40000000</i>
    <i name="BMIX">      1.00000000</i>
    <i name="AMIN">      0.10000000</i>
    <i name="AMIX_MAG">      1.60000000</i>
    <i name="BMIX_MAG">      1.00000000</i>
    <separator name="electronic mixer details" >
     <i type="int" name="IMIX">     4</i>
     <i type="int" name="MAXMIX">   -45</i>
     <i name="WC">    100.00000000</i>
     <i type="int" name="INIMIX">     1</i>
     <i type="int" name="MIXPRE">     1</i>
     <i type="int" name="MREMOVE">     5</i>
    </separator>
   </separator>
   <separator name="electronic dipolcorrection" >
    <i type="logical" name="LDIPOL"> F  </i>
    <i type="logical" name="LMONO"> F  </i>
    <i type="int" name="IDIPOL">     0</i>
    <i name="EPSILON">      1.00000000</i>
    <v name="DIPOL">   -100.00000000   -100.00000000   -100.00000000</v>
    <i name="EFIELD">      0.00000000</i>
   </separator>
  </separator>
  <separator name="grids" >
   <i type="int" name="NGX">    80</i>
   <i type="int" name="NGY">    80</i>
   <i type="int" name="NGZ">    80</i>
   <i type="int" name="NGXF">   160</i>
   <i type="int" name="NGYF">   160</i>
   <i type="int" name="NGZF">   160</i>
   <i type="logical" name="ADDGRID"> T  </i>
  </separator>
  <separator name="ionic" >
   <i type="int" name="NSW">     0</i>
   <i type="int" name="IBRION">    -1</i>
   <i type="int" name="ISIF">     2</i>
   <i name="PSTRESS">      0.00000000</i>
   <i name="EDIFFG">      0.00000010</i>
   <i type="int" name="NFREE">     0</i>
   <i name="POTIM">      0.50000000</i>
   <i name="SMASS">     -3.00000000</i>
   <i name="SCALEE">      1.00000000</i>
  </separator>
  <separator name="ionic md" >
   <i name="TEBEG">      0.00010000</i>
   <i name="TEEND">      0.00010000</i>
   <i type="int" name="NBLOCK">     1</i>
   <i type="int" name="KBLOCK">     1</i>
   <i type="int" name="NPACO">   256</i>
   <i name="APACO">     16.00000000</i>
  </separator>
  <separator name="symmetry" >
   <i type="int" name="ISYM">     2</i>
   <i name="SYMPREC">      0.00001000</i>
  </separator>
  <separator name="dos" >
   <i type="logical" name="LORBIT"> F  </i>
   <v name="RWIGS">     -1.00000000     -1.00000000</v>
   <i type="int" name="NEDOS">   301</i>
   <i name="EMIN">     10.00000000</i>
   <i name="EMAX">    -10.00000000</i>
   <i name="EFERMI">      0.00000000</i>
  </separator>
  <separator name="writing" >
   <i type="int" name="NWRITE">     2</i>
   <i type="logical" name="LWAVE"> F  </i>
   <i type="logical" name="LCHARG"> F  </i>
   <i type="logical" name="LPARD"> F  </i>
   <i type="logical" name="LVTOT"> F  </i>
   <i type="logical" name="LVHAR"> F  </i>
   <i type="logical" name="LELF"> F  </i>
   <i type="logical" name="LOPTICS"> F  </i>
   <v name="STM">      0.00000000      0.00000000      0.00000000      0.00000000      0.00000000      0.00000000      0.00000000</v>
  </separator>
  <separator name="performance" >
   <i type="int" name="NPAR">     4</i>
   <i type="int" name="NSIM">     4</i>
   <i type="int" name="NBLK">    -1</i>
   <i type="logical" name="LPLANE"> T  </i>
   <i type="logical" name="LSCALAPACK"> T  </i>
   <i type="logical" name="LSCAAWARE"> F  </i>
   <i type="logical" name="LSCALU"> F  </i>
   <i type="logical" name="LASYNC"> F  </i>
   <i type="logical" name="LORBITALREAL"> F  </i>
  </separator>
  <separator name="miscellaneous" >
   <i type="int" name="IDIOT">     3</i>
   <i type="logical" name="LMUSIC"> F  </i>
   <v name="POMASS">     24.30500000     32.06600000</v>
   <v name="DARWINR">      0.00000000      0.00000000</v>
   <v name="DARWINV">      1.00000000      1.00000000</v>
   <i type="logical" name="LCORR"> T  </i>
  </separator>
  <i type="logical" name="GGA_COMPAT"> T  </i>
  <i type="logical" name="LBERRY"> F  </i>
  <i type="int" name="ICORELEVEL">     0</i>
  <i type="logical" name="LDAU"> F  </i>
  <i type="int" name="I_CONSTRAINED_M">     0</i>
  <separator name="electronic exchange-correlation" >
   <i type="string" name="GGA">PS</i>
   <i type="int" name="VOSKOWN">     0</i>
   <i type="logical" name="LHFCALC"> F  </i>
   <i type="string" name="PRECFOCK"></i>
   <i type="logical" name="LSYMGRAD"> F  </i>
   <i type="logical" name="LHFONE"> F  </i>
   <i type="logical" name="LRHFCALC"> F  </i>
   <i type="logical" name="LTHOMAS"> F  </i>
   <i type="logical" name="LMODELHF"> F  </i>
   <i name="ENCUT4O">     -1.00000000</i>
   <i type="int" name="EXXOEP">     0</i>
   <i type="int" name="FOURORBIT">     0</i>
   <i name="AEXX">      0.00000000</i>
   <i name="HFALPHA">      0.00000000</i>
   <i name="MCALPHA">      0.00000000</i>
   <i name="ALDAX">      1.00000000</i>
   <i name="AGGAX">      1.00000000</i>
   <i name="ALDAC">      1.00000000</i>
   <i name="AGGAC">      1.00000000</i>
   <i type="int" name="NKREDX">     1</i>
   <i type="int" name="NKREDY">     1</i>
   <i type="int" name="NKREDZ">     1</i>
   <i type="logical" name="SHIFTRED"> F  </i>
   <i type="logical" name="ODDONLY"> F  </i>
   <i type="logical" name="EVENONLY"> F  </i>
   <i type="int" name="LMAXFOCK">     0</i>
   <i type="int" name="NMAXFOCKAE">     0</i>
   <i type="logical" name="LFOCKAEDFT"> F  </i>
   <i name="HFSCREEN">      0.00000000</i>
   <i name="HFSCREENC">      0.00000000</i>
   <i type="int" name="NBANDSGWLOW">     0</i>
  </separator>
  <separator name="vdW DFT" >
   <i type="logical" name="LUSE_VDW"> F  </i>
   <i name="Zab_VDW">     -0.84910000</i>
   <i name="PARAM1">      0.12340000</i>
   <i name="PARAM2">      1.00000000</i>
   <i name="PARAM3">      0.00000000</i>
  </separator>
  <separator name="model GW" >
   <i type="int" name="MODEL_GW">     0</i>
   <i name="MODEL_EPS0">     10.53456437</i>
   <i name="MODEL_ALPHA">      1.00000000</i>
  </separator>
  <separator name="linear response parameters" >
   <i type="logical" name="LEPSILON"> F  </i>
   <i type="logical" name="LRPA"> F  </i>
   <i type="logical" name="LNABLA"> F  </i>
   <i type="logical" name="LVEL"> F  </i>
   <i type="int" name="KINTER">     0</i>
   <i name="CSHIFT">      0.10000000</i>
   <i name="OMEGAMAX">     -1.00000000</i>
   <i name="DEG_THRESHOLD">      0.00200000</i>
  </separator>
  <separator name="orbital magnetization" >
   <i type="logical" name="NUCIND"> F  </i>
   <v name="MAGPOS">      0.00000000      0.00000000      0.00000000</v>
   <i type="logical" name="LNICSALL"> T  </i>
   <i type="logical" name="ORBITALMAG"> F  </i>
   <i type="logical" name="LMAGBLOCH"> F  </i>
   <i type="logical" name="LCHIMAG"> F  </i>
   <i type="logical" name="LGAUGE"> T  </i>
   <i type="int" name="MAGATOM">     0</i>
   <v name="MAGDIPOL">      0.00000000      0.00000000      0.00000000</v>
   <v name="AVECCONST">      0.00000000      0.00000000      0.00000000</v>
  </separator>
  <separator name="response functions" >
   <i type="logical" name="LADDER"> F  </i>
   <i type="logical" name="LFXC"> F  </i>
   <i type="logical" name="LHARTREE"> T  </i>
   <i type="int" name="IBSE">     0</i>
   <i type="logical" name="LTCTE"> F  </i>
   <i type="logical" name="LTETE"> F  </i>
   <i type="logical" name="LTRIPLET"> F  </i>
   <i type="logical" name="LFXCEPS"> F  </i>
   <i type="logical" name="LFXHEG"> F  </i>
   <i type="logical" name="L2ORDER"> F  </i>
   <i type="logical" name="LUSEW"> F  </i>
   <i name="ENCUTGW">     -2.00000000</i>
   <i name="ENCUTGWSOFT">     -2.00000000</i>
   <i name="ENCUTLF">     -1.00000000</i>
   <i type="int" name="LMAXMP2">    -1</i>
   <i name="SCISSOR">      0.00000000</i>
   <i type="int" name="NOMEGA">     0</i>
   <i type="int" name="NOMEGAR">     0</i>
   <i type="int" name="NBANDSGW">    -1</i>
   <i type="int" name="NBANDSO">    -1</i>
   <i type="int" name="NBANDSV">    -1</i>
   <i type="int" name="NELM">     1</i>
   <i type="int" name="DIM">     3</i>
   <i type="int" name="ANTIRES">     0</i>
   <i name="OMEGAMAX">    -30.00000000</i>
   <i name="OMEGAMIN">    -30.00000000</i>
   <i name="OMEGATL">   -200.00000000</i>
   <i type="int" name="OMEGAGRID">     0</i>
   <i name="CSHIFT">     -0.10000000</i>
   <i type="logical" name="SELFENERGY"> F  </i>
   <i type="logical" name="LSPECTRAL"> F  </i>
   <i type="logical" name="ODDONLYGW"> F  </i>
   <i type="logical" name="EVENONLYGW"> F  </i>
   <i type="int" name="NKREDLFX">     1</i>
   <i type="int" name="NKREDLFY">     1</i>
   <i type="int" name="NKREDLFZ">     1</i>
   <i type="int" name="MAXMEM">  1800</i>
   <i type="int" name="TELESCOPE">     0</i>
   <i type="int" name="TAUPAR">     1</i>
  </separator>
  <separator name="External order field" >
   <i name="OFIELD_KAPPA">      0.00000000</i>
   <v name="OFIELD_K">      0.00000000      0.00000000      0.00000000</v>
   <i name="OFIELD_Q6_NEAR">      0.00000000</i>
   <i name="OFIELD_Q6_FAR">      0.00000000</i>
   <i name="OFIELD_A">      0.00000000</i>
  </separator>
 </parameters>
 <atominfo>
  <atoms>      64 </atoms>
  <types>       2 </types>
  <array name="atoms" >
   <dimension dim="1">ion</dimension>
   <field type="string">element</field>
   <field type="int">atomtype</field>
   <set>
    <rc><c>Mg</c><c>   1</c></rc>
    <rc><c>Mg</c><c>   1</c></rc>
    <rc><c>Mg</c><c>   1</c></rc>
    <rc><c>Mg</c><c>   1</c></rc>
    <rc><c>Mg</c><c>   1</c></rc>
    <rc><c>Mg</c><c>   1</c></rc>
    <rc><c>Mg</c><c>   1</c></rc>
    <rc><c>Mg</c><c>   1</c></rc>
    <rc><c>Mg</c><c>   1</c></rc>
    <rc><c>Mg</c><c>   1</c></rc>
    <rc><c>Mg</c><c>   1</c></rc>
    <rc><c>Mg</c><c>   1</c></rc>
    <rc><c>Mg</c><c>   1</c></rc>
    <rc><c>Mg</c><c>   1</c></rc>
    <rc><c>Mg</c><c>   1</c></rc>
    <rc><c>Mg</c><c>   1</c></rc>
    <rc><c>Mg</c><c>   1</c></rc>
    <rc><c>Mg</c><c>   1</c></rc>
    <rc><c>Mg</c><c>   1</c></rc>
    <rc><c>Mg</c><c>   1</c></rc>
    <rc><c>Mg</c><c>   1</c></rc>
    <rc><c>Mg</c><c>   1</c></rc>
    <rc><c>Mg</c><c>   1</c></rc>
    <rc><c>Mg</c><c>   1</c></rc>
    <rc><c>Mg</c><c>   1</c></rc>
    <rc><c>Mg</c><c>   1</c></rc>
    <rc><c>Mg</c><c>   1</c></rc>
    <rc><c>Mg</c><c>   1</c></rc>
    <rc><c>Mg</c><c>   1</c></rc>
    <rc><c>Mg</c><c>   1</c></rc>
    <rc><c>Mg</c><c>   1</c></rc>
    <rc><c>Mg</c><c>   1</c></rc>
    <rc><c>S </c><c>   2</c></rc>
    <rc><c>S </c><c>   2</c></rc>
    <rc><c>S </c><c>   2</c></rc>
    <rc><c>S </c><c>   2</c></rc>
    <rc><c>S </c><c>   2</c></rc>
    <rc><c>S </c><c>   2</c></rc>
    <rc><c>S </c><c>   2</c></rc>
    <rc><c>S </c><c>   2</c></rc>
    <rc><c>S </c><c>   2</c></rc>
    <rc><c>S </c><c>   2</c></rc>
    <rc><c>S </c><c>   2</c></rc>
    <rc><c>S </c><c>   2</c></rc>
    <rc><c>S </c><c>   2</c></rc>
    <rc><c>S </c><c>   2</c></rc>
    <rc><c>S </c><c>   2</c></rc>
    <rc><c>S </c><c>   2</c></rc>
    <rc><c>S </c><c>   2</c></rc>
    <rc><c>S </c><c>   2</c></rc>
    <rc><c>S </c><c>   2</c></rc>
    <rc><c>S </c><c>   2</c></rc>
    <rc><c>S </c><c>   2</c></rc>
    <rc><c>S </c><c>   2</c></rc>
    <rc><c>S </c><c>   2</c></rc>
    <rc><c>S </c><c>   2</c></rc>
    <rc><c>S </c><c>   2</c></rc>
    <rc><c>S </c><c>   2</c></rc>
    <rc><c>S </c><c>   2</c></rc>
    <rc><c>S </c><c>   2</c></rc>
    <rc><c>S </c><c>   2</c></rc>
    <rc><c>S </c><c>   2</c></rc>
    <rc><c>S </c><c>   2</c></rc>
    <rc><c>S </c><c>   2</c></rc>
   </set>
  </array>
  <array name="atomtypes" >
   <dimension dim="1">type</dimension>
   <field type="int">atomspertype</field>
   <field type="string">element</field>
   <field>mass</field>
   <field>valence</field>
   <field type="string">pseudopotential</field>
   <set>
    <rc><c>  32</c><c>Mg</c><c>     24.30500000</c><c>      8.00000000</c><c>  PAW_PBE Mg_pv 13Apr2007               </c></rc>
    <rc><c>  32</c><c>S </c><c>     32.06600000</c><c>      6.00000000</c><c>  PAW_PBE S 06Sep2000                   </c></rc>
   </set>
  </array>
 </atominfo>
 <structure name="initialpos" >
  <crystal>
   <varray name="basis" >
    <v>      10.39637098       0.00000000       0.00000000 </v>
    <v>       0.00000000      10.39637098       0.00000000 </v>
    <v>       0.00000000       0.00000000      10.39637098 </v>
   </varray>
   <i name="volume">   1123.68686644 </i>
   <varray name="rec_basis" >
    <v>       0.09618741       0.00000000       0.00000000 </v>
    <v>       0.00000000       0.09618741       0.00000000 </v>
    <v>       0.00000000       0.00000000       0.09618741 </v>
   </varray>
  </crystal>
  <varray name="positions" >
   <v>       0.00096187       0.00000000       0.00000000 </v>
   <v>       0.50000000       0.00000000       0.00000000 </v>
   <v>       0.00000000       0.50000000       0.00000000 </v>
   <v>       0.50000000       0.50000000       0.00000000 </v>
   <v>       0.00000000       0.00000000       0.50000000 </v>
   <v>       0.50000000       0.00000000       0.50000000 </v>
   <v>       0.00000000       0.50000000       0.50000000 </v>
   <v>       0.50000000       0.50000000       0.50000000 </v>
   <v>       0.00000000       0.25000000       0.25000000 </v>
   <v>       0.50000000       0.25000000       0.25000000 </v>
   <v>       0.00000000       0.75000000       0.25000000 </v>
   <v>       0.50000000       0.75000000       0.25000000 </v>
   <v>       0.00000000       0.25000000       0.75000000 </v>
   <v>       0.50000000       0.25000000       0.75000000 </v>
   <v>       0.00000000       0.75000000       0.75000000 </v>
   <v>       0.50000000       0.75000000       0.75000000 </v>
   <v>       0.25000000       0.00000000       0.25000000 </v>
   <v>       0.75000000       0.00000000       0.25000000 </v>
   <v>       0.25000000       0.50000000       0.25000000 </v>
   <v>       0.75000000       0.50000000       0.25000000 </v>
   <v>       0.25000000       0.00000000       0.75000000 </v>
   <v>       0.75000000       0.00000000       0.75000000 </v>
   <v>       0.25000000       0.50000000       0.75000000 </v>
   <v>       0.75000000       0.50000000       0.75000000 </v>
   <v>       0.25000000       0.25000000       0.00000000 </v>
   <v>       0.75000000       0.25000000       0.00000000 </v>
   <v>       0.25000000       0.75000000       0.00000000 </v>
   <v>       0.75000000       0.75000000       0.00000000 </v>
   <v>       0.25000000       0.25000000       0.50000000 </v>
   <v>       0.75000000       0.25000000       0.50000000 </v>
   <v>       0.25000000       0.75000000       0.50000000 </v>
   <v>       0.75000000       0.75000000       0.50000000 </v>
   <v>       0.25000000       0.00000000       0.00000000 </v>
   <v>       0.75000000       0.00000000       0.00000000 </v>
   <v>       0.25000000       0.50000000       0.00000000 </v>
   <v>       0.75000000       0.50000000       0.00000000 </v>
   <v>       0.25000000       0.00000000       0.50000000 </v>
   <v>       0.75000000       0.00000000       0.50000000 </v>
   <v>       0.25000000       0.50000000       0.50000000 </v>
   <v>       0.75000000       0.50000000       0.50000000 </v>
   <v>       0.25000000       0.25000000       0.25000000 </v>
   <v>       0.75000000       0.25000000       0.25000000 </v>
   <v>       0.25000000       0.75000000       0.25000000 </v>
   <v>       0.75000000       0.75000000       0.25000000 </v>
   <v>       0.25000000       0.25000000       0.75000000 </v>
   <v>       0.75000000       0.25000000       0.75000000 </v>
   <v>       0.25000000       0.75000000       0.75000000 </v>
   <v>       0.75000000       0.75000000       0.75000000 </v>
   <v>       0.00000000       0.00000000       0.25000000 </v>
   <v>       0.50000000       0.00000000       0.25000000 </v>
   <v>       0.00000000       0.50000000       0.25000000 </v>
   <v>       0.50000000       0.50000000       0.25000000 </v>
   <v>       0.00000000       0.00000000       0.75000000 </v>
   <v>       0.50000000       0.00000000       0.75000000 </v>
   <v>       0.00000000       0.50000000       0.75000000 </v>
   <v>       0.50000000       0.50000000       0.75000000 </v>
   <v>       0.00000000       0.25000000       0.00000000 </v>
   <v>       0.50000000       0.25000000       0.00000000 </v>
   <v>       0.00000000       0.75000000       0.00000000 </v>
   <v>       0.50000000       0.75000000       0.00000000 </v>
   <v>       0.00000000       0.25000000       0.50000000 </v>
   <v>       0.50000000       0.25000000       0.50000000 </v>
   <v>       0.00000000       0.75000000       0.50000000 </v>
   <v>       0.50000000       0.75000000       0.50000000 </v>
  </varray>
 </structure>
 <calculation>
  <scstep>
   <time name="dav">   24.67   24.68</time>
   <time name="total">   25.06   25.08</time>
   <energy>
    <i name="alphaZ">   1209.31185597 </i>
    <i name="ewald"> -24958.02151244 </i>
    <i name="hartreedc">  -9350.33021255 </i>
    <i name="XCdc">   1273.89882095 </i>
    <i name="pawpsdc">  27701.73694044 </i>
    <i name="pawaedc"> -31358.41014717 </i>
    <i name="eentropy">     -0.00042700 </i>
    <i name="bandstr">  -2805.47552738 </i>
    <i name="atom">  42573.64344421 </i>
    <i name="e_fr_energy">   4286.35323504 </i>
    <i name="e_wo_entrp">   4286.35366203 </i>
    <i name="e_0_energy">   4286.35344854 </i>
   </energy>
  </scstep>
  <scstep>
   <time name="dav">   24.35   24.35</time>
   <time name="total">   24.35   24.35</time>
   <energy>
    <i name="e_fr_energy">    106.59560218 </i>
    <i name="e_wo_entrp">    106.59560218 </i>
    <i name="e_0_energy">    106.59560218 </i>
   </energy>
  </scstep>
  <scstep>
   <time name="dav">   24.85   24.85</time>
   <time name="total">   24.85   24.86</time>
   <energy>
    <i name="e_fr_energy">   -282.29128802 </i>
    <i name="e_wo_entrp">   -282.29128802 </i>
    <i name="e_0_energy">   -282.29128802 </i>
   </energy>
  </scstep>
  <scstep>
   <time name="dav">   23.65   23.66</time>
   <time name="total">   23.66   23.66</time>
   <energy>
    <i name="e_fr_energy">   -300.91274602 </i>
    <i name="e_wo_entrp">   -300.91274602 </i>
    <i name="e_0_energy">   -300.91274602 </i>
   </energy>
  </scstep>
  <scstep>
   <time name="dav">   25.52   25.51</time>
   <time name="total">   26.50   26.50</time>
   <energy>
    <i name="e_fr_energy">   -301.75211715 </i>
    <i name="e_wo_entrp">   -301.75211715 </i>
    <i name="e_0_energy">   -301.75211715 </i>
   </energy>
  </scstep>
  <scstep>
   <time name="dav">   23.18   23.19</time>
   <time name="total">   24.62   24.62</time>
   <energy>
    <i name="e_fr_energy">   -291.17023407 </i>
    <i name="e_wo_entrp">   -291.17023407 </i>
    <i name="e_0_energy">   -291.17023407 </i>
   </energy>
  </scstep>
  <scstep>
   <time name="dav">   24.11   24.11</time>
   <time name="total">   25.54   25.55</time>
   <energy>
    <i name="e_fr_energy">   -289.89659710 </i>
    <i name="e_wo_entrp">   -289.89659710 </i>
    <i name="e_0_energy">   -289.89659710 </i>
   </energy>
  </scstep>
  <scstep>
   <time name="dav">   22.72   22.72</time>
   <time name="total">   24.14   24.13</time>
   <energy>
    <i name="e_fr_energy">   -289.82073894 </i>
    <i name="e_wo_entrp">   -289.82073894 </i>
    <i name="e_0_energy">   -289.82073894 </i>
   </energy>
  </scstep>
  <scstep>
   <time name="dav">   23.85   23.86</time>
   <time name="total">   25.26   25.27</time>
   <energy>
    <i name="e_fr_energy">   -289.81586747 </i>
    <i name="e_wo_entrp">   -289.81586747 </i>
    <i name="e_0_energy">   -289.81586747 </i>
   </energy>
  </scstep>
  <scstep>
   <time name="dav">   23.41   23.41</time>
   <time name="total">   24.82   24.82</time>
   <energy>
    <i name="e_fr_energy">   -289.81632302 </i>
    <i name="e_wo_entrp">   -289.81632302 </i>
    <i name="e_0_energy">   -289.81632302 </i>
   </energy>
  </scstep>
  <scstep>
   <time name="dav">   23.21   23.20</time>
   <time name="total">   24.60   24.59</time>
   <energy>
    <i name="e_fr_energy">   -289.81606211 </i>
    <i name="e_wo_entrp">   -289.81606211 </i>
    <i name="e_0_energy">   -289.81606211 </i>
   </energy>
  </scstep>
  <scstep>
   <time name="dav">   23.78   23.77</time>
   <time name="total">   25.17   25.17</time>
   <energy>
    <i name="e_fr_energy">   -289.81606400 </i>
    <i name="e_wo_entrp">   -289.81606400 </i>
    <i name="e_0_energy">   -289.81606400 </i>
   </energy>
  </scstep>
  <scstep>
   <time name="dav">   23.48   23.48</time>
   <time name="total">   24.89   24.90</time>
   <energy>
    <i name="e_fr_energy">   -289.81606652 </i>
    <i name="e_wo_entrp">   -289.81606652 </i>
    <i name="e_0_energy">   -289.81606652 </i>
   </energy>
  </scstep>
  <scstep>
   <time name="dav">   23.17   23.18</time>
   <time name="total">   24.58   24.59</time>
   <energy>
    <i name="e_fr_energy">   -289.81606628 </i>
    <i name="e_wo_entrp">   -289.81606628 </i>
    <i name="e_0_energy">   -289.81606628 </i>
   </energy>
  </scstep>
  <scstep>
   <time name="dav">   20.75   20.76</time>
   <time name="total">   22.15   22.17</time>
   <energy>
    <i name="e_fr_energy">   -289.81606602 </i>
    <i name="e_wo_entrp">   -289.81606602 </i>
    <i name="e_0_energy">   -289.81606602 </i>
   </energy>
  </scstep>
  <scstep>
   <time name="dav">   19.93   19.94</time>
   <time name="total">   21.37   21.38</time>
   <energy>
    <i name="e_fr_energy">   -289.81606593 </i>
    <i name="e_wo_entrp">   -289.81606593 </i>
    <i name="e_0_energy">   -289.81606593 </i>
   </energy>
  </scstep>
  <scstep>
   <time name="dav">   19.75   19.76</time>
   <time name="total">   21.16   21.17</time>
   <energy>
    <i name="e_fr_energy">   -289.81606589 </i>
    <i name="e_wo_entrp">   -289.81606589 </i>
    <i name="e_0_energy">   -289.81606589 </i>
   </energy>
  </scstep>
  <scstep>
   <time name="dav">   15.20   15.20</time>
   <time name="total">   16.61   16.61</time>
   <energy>
    <i name="e_fr_energy">   -289.81606594 </i>
    <i name="e_wo_entrp">   -289.81606594 </i>
    <i name="e_0_energy">   -289.81606594 </i>
   </energy>
  </scstep>
  <scstep>
   <time name="dav">   15.27   15.27</time>
   <time name="total">   16.67   16.67</time>
   <energy>
    <i name="e_fr_energy">   -289.81606605 </i>
    <i name="e_wo_entrp">   -289.81606605 </i>
    <i name="e_0_energy">   -289.81606605 </i>
   </energy>
  </scstep>
  <scstep>
   <time name="dav">   15.15   15.14</time>
   <time name="total">   16.58   16.57</time>
   <energy>
    <i name="e_fr_energy">   -289.81606609 </i>
    <i name="e_wo_entrp">   -289.81606609 </i>
    <i name="e_0_energy">   -289.81606609 </i>
   </energy>
  </scstep>
  <scstep>
   <time name="dav">   15.15   15.14</time>
   <time name="total">   16.57   16.56</time>
   <energy>
    <i name="e_fr_energy">   -289.81606603 </i>
    <i name="e_wo_entrp">   -289.81606603 </i>
    <i name="e_0_energy">   -289.81606603 </i>
   </energy>
  </scstep>
  <scstep>
   <time name="dav">   15.05   15.05</time>
   <time name="total">   16.44   16.44</time>
   <energy>
    <i name="e_fr_energy">   -289.81606600 </i>
    <i name="e_wo_entrp">   -289.81606600 </i>
    <i name="e_0_energy">   -289.81606600 </i>
   </energy>
  </scstep>
  <scstep>
   <time name="dav">   15.17   15.17</time>
   <time name="total">   16.58   16.59</time>
   <energy>
    <i name="e_fr_energy">   -289.81606601 </i>
    <i name="e_wo_entrp">   -289.81606601 </i>
    <i name="e_0_energy">   -289.81606601 </i>
   </energy>
  </scstep>
  <scstep>
   <time name="dav">   15.04   15.04</time>
   <time name="total">   15.43   15.43</time>
   <energy>
    <i name="alphaZ">   1209.31185597 </i>
    <i name="ewald"> -24958.02151244 </i>
    <i name="hartreedc">  -9276.71810566 </i>
    <i name="XCdc">   1290.07020448 </i>
    <i name="pawpsdc">  37211.51539566 </i>
    <i name="pawaedc"> -40834.48323688 </i>
    <i name="eentropy">      0.00000000 </i>
    <i name="bandstr">  -7505.13411135 </i>
    <i name="atom">  42573.64344421 </i>
    <i name="e_fr_energy">   -289.81606602 </i>
    <i name="e_wo_entrp">   -289.81606602 </i>
    <i name="e_0_energy">   -289.81606602 </i>
   </energy>
  </scstep>
  <structure>
   <crystal>
    <varray name="basis" >
     <v>      10.39637098       0.00000000       0.00000000 </v>
     <v>       0.00000000      10.39637098       0.00000000 </v>
     <v>       0.00000000       0.00000000      10.39637098 </v>
    </varray>
    <i name="volume">   1123.68686644 </i>
    <varray name="rec_basis" >
     <v>       0.09618741       0.00000000       0.00000000 </v>
     <v>       0.00000000       0.09618741       0.00000000 </v>
     <v>       0.00000000       0.00000000       0.09618741 </v>
    </varray>
   </crystal>
   <varray name="positions" >
    <v>       0.00096187       0.00000000       0.00000000 </v>
    <v>       0.50000000       0.00000000       0.00000000 </v>
    <v>       0.00000000       0.50000000       0.00000000 </v>
    <v>       0.50000000       0.50000000       0.00000000 </v>
    <v>       0.00000000       0.00000000       0.50000000 </v>
    <v>       0.50000000       0.00000000       0.50000000 </v>
    <v>       0.00000000       0.50000000       0.50000000 </v>
    <v>       0.50000000       0.50000000       0.50000000 </v>
    <v>       0.00000000       0.25000000       0.25000000 </v>
    <v>       0.50000000       0.25000000       0.25000000 </v>
    <v>       0.00000000       0.75000000       0.25000000 </v>
    <v>       0.50000000       0.75000000       0.25000000 </v>
    <v>       0.00000000       0.25000000       0.75000000 </v>
    <v>       0.50000000       0.25000000       0.75000000 </v>
    <v>       0.00000000       0.75000000       0.75000000 </v>
    <v>       0.50000000       0.75000000       0.75000000 </v>
    <v>       0.25000000       0.00000000       0.25000000 </v>
    <v>       0.75000000       0.00000000       0.25000000 </v>
    <v>       0.25000000       0.50000000       0.25000000 </v>
    <v>       0.75000000       0.50000000       0.25000000 </v>
    <v>       0.25000000       0.00000000       0.75000000 </v>
    <v>       0.75000000       0.00000000       0.75000000 </v>
    <v>       0.25000000       0.50000000       0.75000000 </v>
    <v>       0.75000000       0.50000000       0.75000000 </v>
    <v>       0.25000000       0.25000000       0.00000000 </v>
    <v>       0.75000000       0.25000000       0.00000000 </v>
    <v>       0.25000000       0.75000000       0.00000000 </v>
    <v>       0.75000000       0.75000000       0.00000000 </v>
    <v>       0.25000000       0.25000000       0.50000000 </v>
    <v>       0.75000000       0.25000000       0.50000000 </v>
    <v>       0.25000000       0.75000000       0.50000000 </v>
    <v>       0.75000000       0.75000000       0.50000000 </v>
    <v>       0.25000000       0.00000000       0.00000000 </v>
    <v>       0.75000000       0.00000000       0.00000000 </v>
    <v>       0.25000000       0.50000000       0.00000000 </v>
    <v>       0.75000000       0.50000000       0.00000000 </v>
    <v>       0.25000000       0.00000000       0.50000000 </v>
    <v>       0.75000000       0.00000000       0.50000000 </v>
    <v>       0.25000000       0.50000000       0.50000000 </v>
    <v>       0.75000000       0.50000000       0.50000000 </v>
    <v>       0.25000000       0.25000000       0.25000000 </v>
    <v>       0.75000000       0.25000000       0.25000000 </v>
    <v>       0.25000000       0.75000000       0.25000000 </v>
    <v>       0.75000000       0.75000000       0.25000000 </v>
    <v>       0.25000000       0.25000000       0.75000000 </v>
    <v>       0.75000000       0.25000000       0.75000000 </v>
    <v>       0.25000000       0.75000000       0.75000000 </v>
    <v>       0.75000000       0.75000000       0.75000000 </v>
    <v>       0.00000000       0.00000000       0.25000000 </v>
    <v>       0.50000000       0.00000000       0.25000000 </v>
    <v>       0.00000000       0.50000000       0.25000000 </v>
    <v>       0.50000000       0.50000000       0.25000000 </v>
    <v>       0.00000000       0.00000000       0.75000000 </v>
    <v>       0.50000000       0.00000000       0.75000000 </v>
    <v>       0.00000000       0.50000000       0.75000000 </v>
    <v>       0.50000000       0.50000000       0.75000000 </v>
    <v>       0.00000000       0.25000000       0.00000000 </v>
    <v>       0.50000000       0.25000000       0.00000000 </v>
    <v>       0.00000000       0.75000000       0.00000000 </v>
    <v>       0.50000000       0.75000000       0.00000000 </v>
    <v>       0.00000000       0.25000000       0.50000000 </v>
    <v>       0.50000000       0.25000000       0.50000000 </v>
    <v>       0.00000000       0.75000000       0.50000000 </v>
    <v>       0.50000000       0.75000000       0.50000000 </v>
   </varray>
  </structure>
  <varray name="forces" >
   <v>      -0.04677056       0.00000000       0.00000000 </v>
   <v>       0.01085564       0.00000000       0.00000000 </v>
   <v>       0.00125658       0.00000000       0.00000000 </v>
   <v>      -0.00067255       0.00000000       0.00000000 </v>
   <v>       0.00125658       0.00000000       0.00000000 </v>
   <v>      -0.00067255       0.00000000       0.00000000 </v>
   <v>      -0.00049164       0.00000000       0.00000000 </v>
   <v>       0.00047992       0.00000000       0.00000000 </v>
   <v>      -0.00098317      -0.00000538      -0.00000538 </v>
   <v>       0.00073033       0.00000112       0.00000112 </v>
   <v>      -0.00098317       0.00000538      -0.00000538 </v>
   <v>       0.00073033      -0.00000112       0.00000112 </v>
   <v>      -0.00098317      -0.00000538       0.00000538 </v>
   <v>       0.00073033       0.00000112      -0.00000112 </v>
   <v>      -0.00098317       0.00000538       0.00000538 </v>
   <v>       0.00073033      -0.00000112      -0.00000112 </v>
   <v>       0.00087988       0.00000000       0.00612832 </v>
   <v>       0.00087836       0.00000000      -0.00608409 </v>
   <v>      -0.00001343       0.00000000      -0.00051457 </v>
   <v>      -0.00001025       0.00000000       0.00051231 </v>
   <v>       0.00087988       0.00000000      -0.00612832 </v>
   <v>       0.00087836       0.00000000       0.00608409 </v>
   <v>      -0.00001343       0.00000000       0.00051457 </v>
   <v>      -0.00001025       0.00000000      -0.00051231 </v>
   <v>       0.00087988       0.00612832       0.00000000 </v>
   <v>       0.00087836      -0.00608409       0.00000000 </v>
   <v>       0.00087988      -0.00612832       0.00000000 </v>
   <v>       0.00087836       0.00608409       0.00000000 </v>
   <v>      -0.00001343      -0.00051457       0.00000000 </v>
   <v>      -0.00001025       0.00051231       0.00000000 </v>
   <v>      -0.00001343       0.00051457       0.00000000 </v>
   <v>      -0.00001025      -0.00051231       0.00000000 </v>
   <v>       0.01343832       0.00000000       0.00000000 </v>
   <v>       0.01233909       0.00000000       0.00000000 </v>
   <v>       0.00046150       0.00000000       0.00000000 </v>
   <v>       0.00045229       0.00000000       0.00000000 </v>
   <v>       0.00046150       0.00000000       0.00000000 </v>
   <v>       0.00045229       0.00000000       0.00000000 </v>
   <v>      -0.00000660       0.00000000       0.00000000 </v>
   <v>      -0.00001017       0.00000000       0.00000000 </v>
   <v>      -0.00001639      -0.00096097      -0.00096097 </v>
   <v>      -0.00002362       0.00095396       0.00095396 </v>
   <v>      -0.00001639       0.00096097      -0.00096097 </v>
   <v>      -0.00002362      -0.00095396       0.00095396 </v>
   <v>      -0.00001639      -0.00096097       0.00096097 </v>
   <v>      -0.00002362       0.00095396      -0.00095396 </v>
   <v>      -0.00001639       0.00096097       0.00096097 </v>
   <v>      -0.00002362      -0.00095396      -0.00095396 </v>
   <v>       0.00306199       0.00000000      -0.00004173 </v>
   <v>      -0.00265268       0.00000000      -0.00000229 </v>
   <v>       0.00036116       0.00000000       0.00000436 </v>
   <v>      -0.00041961       0.00000000       0.00000012 </v>
   <v>       0.00306199       0.00000000       0.00004173 </v>
   <v>      -0.00265268       0.00000000       0.00000229 </v>
   <v>       0.00036116       0.00000000      -0.00000436 </v>
   <v>      -0.00041961       0.00000000      -0.00000012 </v>
   <v>       0.00306199      -0.00004173       0.00000000 </v>
   <v>      -0.00265268      -0.00000229       0.00000000 </v>
   <v>       0.00306199       0.00004173       0.00000000 </v>
   <v>      -0.00265268       0.00000229       0.00000000 </v>
   <v>       0.00036116       0.00000436       0.00000000 </v>
   <v>      -0.00041961       0.00000012       0.00000000 </v>
   <v>       0.00036116      -0.00000436       0.00000000 </v>
   <v>      -0.00041961      -0.00000012       0.00000000 </v>
  </varray>
  <varray name="stress" >
   <v>      -7.70828958       0.00000000       0.00000000 </v>
   <v>       0.00000000      -7.71195486       0.00000000 </v>
   <v>       0.00000000       0.00000000      -7.71195486 </v>
  </varray>
  <energy>
   <i name="e_fr_energy">   -289.81606602 </i>
   <i name="e_wo_entrp">   -289.81606602 </i>
   <i name="e_0_energy">      0.00000000 </i>
  </energy>
  <time name="totalsc">  562.51  562.64</time>
  <eigenvalues>
   <array>
    <dimension dim="1">band</dimension>
    <dimension dim="2">kpoint</dimension>
    <dimension dim="3">spin</dimension>
    <field>eigene</field>
    <field>occ</field>
    <set>
     <set comment="spin 1">
      <set comment="kpoint 1">
       <r>  -37.7518    1.0000 </r>
       <r>  -37.7517    1.0000 </r>
       <r>  -37.7513    1.0000 </r>
       <r>  -37.7513    1.0000 </r>
       <r>  -37.7509    1.0000 </r>
       <r>  -37.7509    1.0000 </r>
       <r>  -37.7508    1.0000 </r>
       <r>  -37.7497    1.0000 </r>
       <r>  -37.7497    1.0000 </r>
       <r>  -37.7496    1.0000 </r>
       <r>  -37.7496    1.0000 </r>
       <r>  -37.7496    1.0000 </r>
       <r>  -37.7495    1.0000 </r>
       <r>  -37.7495    1.0000 </r>
       <r>  -37.7494    1.0000 </r>
       <r>  -37.7492    1.0000 </r>
       <r>  -37.7492    1.0000 </r>
       <r>  -37.7491    1.0000 </r>
       <r>  -37.7491    1.0000 </r>
       <r>  -37.7491    1.0000 </r>
       <r>  -37.7490    1.0000 </r>
       <r>  -37.7487    1.0000 </r>
       <r>  -37.7486    1.0000 </r>
       <r>  -37.7485    1.0000 </r>
       <r>  -37.7485    1.0000 </r>
       <r>  -37.7484    1.0000 </r>
       <r>  -37.7484    1.0000 </r>
       <r>  -37.7484    1.0000 </r>
       <r>  -37.7484    1.0000 </r>
       <r>  -37.7483    1.0000 </r>
       <r>  -37.7483    1.0000 </r>
       <r>  -37.7477    1.0000 </r>
       <r>  -37.7475    1.0000 </r>
       <r>  -37.7475    1.0000 </r>
       <r>  -37.7475    1.0000 </r>
       <r>  -37.7475    1.0000 </r>
       <r>  -37.7474    1.0000 </r>
       <r>  -37.7474    1.0000 </r>
       <r>  -37.7473    1.0000 </r>
       <r>  -37.7473    1.0000 </r>
       <r>  -37.7472    1.0000 </r>
       <r>  -37.7472    1.0000 </r>
       <r>  -37.7471    1.0000 </r>
       <r>  -37.7469    1.0000 </r>
       <r>  -37.7469    1.0000 </r>
       <r>  -37.7469    1.0000 </r>
       <r>  -37.7469    1.0000 </r>
       <r>  -37.7469    1.0000 </r>
       <r>  -37.7469    1.0000 </r>
       <r>  -37.7469    1.0000 </r>
       <r>  -37.7469    1.0000 </r>
       <r>  -37.7469    1.0000 </r>
       <r>  -37.7468    1.0000 </r>
       <r>  -37.7468    1.0000 </r>
       <r>  -37.7467    1.0000 </r>
       <r>  -37.7467    1.0000 </r>
       <r>  -37.7467    1.0000 </r>
       <r>  -37.7467    1.0000 </r>
       <r>  -37.7463    1.0000 </r>
       <r>  -37.7463    1.0000 </r>
       <r>  -37.7459    1.0000 </r>
       <r>  -37.7459    1.0000 </r>
       <r>  -37.7459    1.0000 </r>
       <r>  -37.7457    1.0000 </r>
       <r>  -37.7457    1.0000 </r>
       <r>  -37.7456    1.0000 </r>
       <r>  -37.7456    1.0000 </r>
       <r>  -37.7455    1.0000 </r>
       <r>  -37.7455    1.0000 </r>
       <r>  -37.7454    1.0000 </r>
       <r>  -37.7454    1.0000 </r>
       <r>  -37.7453    1.0000 </r>
       <r>  -37.7452    1.0000 </r>
       <r>  -37.7449    1.0000 </r>
       <r>  -37.7449    1.0000 </r>
       <r>  -37.7449    1.0000 </r>
       <r>  -37.7449    1.0000 </r>
       <r>  -37.7449    1.0000 </r>
       <r>  -37.7449    1.0000 </r>
       <r>  -37.7449    1.0000 </r>
       <r>  -37.7449    1.0000 </r>
       <r>  -37.7448    1.0000 </r>
       <r>  -37.7448    1.0000 </r>
       <r>  -37.7446    1.0000 </r>
       <r>  -37.7446    1.0000 </r>
       <r>  -37.7446    1.0000 </r>
       <r>  -37.7446    1.0000 </r>
       <r>  -37.7444    1.0000 </r>
       <r>  -37.7443    1.0000 </r>
       <r>  -37.7441    1.0000 </r>
       <r>  -37.7441    1.0000 </r>
       <r>  -37.7435    1.0000 </r>
       <r>  -37.7435    1.0000 </r>
       <r>  -37.7433    1.0000 </r>
       <r>  -37.7432    1.0000 </r>
       <r>  -37.7432    1.0000 </r>
       <r>   -9.2029    1.0000 </r>
       <r>   -8.4527    1.0000 </r>
       <r>   -8.4503    1.0000 </r>
       <r>   -8.4503    1.0000 </r>
       <r>   -8.4503    1.0000 </r>
       <r>   -8.4503    1.0000 </r>
       <r>   -8.4481    1.0000 </r>
       <r>   -7.9437    1.0000 </r>
       <r>   -7.9392    1.0000 </r>
       <r>   -7.9392    1.0000 </r>
       <r>   -7.9391    1.0000 </r>
       <r>   -7.9391    1.0000 </r>
       <r>   -7.9391    1.0000 </r>
       <r>   -7.9391    1.0000 </r>
       <r>   -7.9391    1.0000 </r>
       <r>   -7.9391    1.0000 </r>
       <r>   -7.9390    1.0000 </r>
       <r>   -7.9390    1.0000 </r>
       <r>   -7.9346    1.0000 </r>
       <r>   -7.8586    1.0000 </r>
       <r>   -7.8586    1.0000 </r>
       <r>   -7.8586    1.0000 </r>
       <r>   -7.8585    1.0000 </r>
       <r>   -7.4881    1.0000 </r>
       <r>   -7.4880    1.0000 </r>
       <r>   -7.4880    1.0000 </r>
       <r>   -7.4407    1.0000 </r>
       <r>   -7.4385    1.0000 </r>
       <r>   -7.4385    1.0000 </r>
       <r>   -7.4385    1.0000 </r>
       <r>   -7.4385    1.0000 </r>
       <r>   -7.4361    1.0000 </r>
       <r>   -1.4111    1.0000 </r>
       <r>   -1.4111    1.0000 </r>
       <r>   -1.4111    1.0000 </r>
       <r>   -1.4111    1.0000 </r>
       <r>   -0.7669    1.0000 </r>
       <r>   -0.7669    1.0000 </r>
       <r>   -0.7669    1.0000 </r>
       <r>   -0.2609    1.0000 </r>
       <r>   -0.2609    1.0000 </r>
       <r>   -0.2602    1.0000 </r>
       <r>   -0.2597    1.0000 </r>
       <r>   -0.2596    1.0000 </r>
       <r>   -0.2595    1.0000 </r>
       <r>   -0.2595    1.0000 </r>
       <r>   -0.2595    1.0000 </r>
       <r>   -0.2593    1.0000 </r>
       <r>   -0.2588    1.0000 </r>
       <r>   -0.2582    1.0000 </r>
       <r>   -0.2582    1.0000 </r>
       <r>    0.2073    1.0000 </r>
       <r>    0.2073    1.0000 </r>
       <r>    0.2086    1.0000 </r>
       <r>    0.2086    1.0000 </r>
       <r>    0.2090    1.0000 </r>
       <r>    0.2090    1.0000 </r>
       <r>    0.2090    1.0000 </r>
       <r>    0.2090    1.0000 </r>
       <r>    0.2094    1.0000 </r>
       <r>    0.2094    1.0000 </r>
       <r>    0.2106    1.0000 </r>
       <r>    0.2106    1.0000 </r>
       <r>    0.9017    1.0000 </r>
       <r>    0.9025    1.0000 </r>
       <r>    0.9025    1.0000 </r>
       <r>    0.9025    1.0000 </r>
       <r>    0.9025    1.0000 </r>
       <r>    0.9033    1.0000 </r>
       <r>    1.0964    1.0000 </r>
       <r>    1.0965    1.0000 </r>
       <r>    1.0968    1.0000 </r>
       <r>    1.0968    1.0000 </r>
       <r>    1.0970    1.0000 </r>
       <r>    1.0976    1.0000 </r>
       <r>    1.1170    1.0000 </r>
       <r>    1.1170    1.0000 </r>
       <r>    1.1177    1.0000 </r>
       <r>    1.1180    1.0000 </r>
       <r>    1.1180    1.0000 </r>
       <r>    1.1180    1.0000 </r>
       <r>    1.1181    1.0000 </r>
       <r>    1.1181    1.0000 </r>
       <r>    1.1183    1.0000 </r>
       <r>    1.1185    1.0000 </r>
       <r>    1.1190    1.0000 </r>
       <r>    1.1190    1.0000 </r>
       <r>    1.7888    1.0000 </r>
       <r>    1.7888    1.0000 </r>
       <r>    1.7888    1.0000 </r>
       <r>    1.7888    1.0000 </r>
       <r>    1.7888    1.0000 </r>
       <r>    1.7888    1.0000 </r>
       <r>    2.5099    1.0000 </r>
       <r>    2.5099    1.0000 </r>
       <r>    2.5107    1.0000 </r>
       <r>    2.5107    1.0000 </r>
       <r>    2.5110    1.0000 </r>
       <r>    2.5111    1.0000 </r>
       <r>    2.5111    1.0000 </r>
       <r>    2.5111    1.0000 </r>
       <r>    2.5116    1.0000 </r>
       <r>    2.5116    1.0000 </r>
       <r>    2.5123    1.0000 </r>
       <r>    2.5123    1.0000 </r>
       <r>    2.8538    1.0000 </r>
       <r>    2.8538    1.0000 </r>
       <r>    2.8545    1.0000 </r>
       <r>    2.8551    1.0000 </r>
       <r>    2.8551    1.0000 </r>
       <r>    2.8551    1.0000 </r>
       <r>    2.8551    1.0000 </r>
       <r>    2.8551    1.0000 </r>
       <r>    2.8552    1.0000 </r>
       <r>    2.8558    1.0000 </r>
       <r>    2.8563    1.0000 </r>
       <r>    2.8563    1.0000 </r>
       <r>    2.8959    1.0000 </r>
       <r>    2.8959    1.0000 </r>
       <r>    2.8959    1.0000 </r>
       <r>    2.8959    1.0000 </r>
       <r>    2.8959    1.0000 </r>
       <r>    2.8960    1.0000 </r>
       <r>    2.8960    1.0000 </r>
       <r>    2.8960    1.0000 </r>
       <r>    3.5002    1.0000 </r>
       <r>    3.5002    1.0000 </r>
       <r>    3.5002    1.0000 </r>
       <r>    6.2153    0.0000 </r>
       <r>    6.2154    0.0000 </r>
       <r>    6.2154    0.0000 </r>
       <r>    7.1180    0.0000 </r>
       <r>    7.7317    0.0000 </r>
       <r>    7.7317    0.0000 </r>
       <r>    7.7317    0.0000 </r>
       <r>    7.9057    0.0000 </r>
       <r>    7.9057    0.0000 </r>
       <r>    7.9058    0.0000 </r>
       <r>    7.9058    0.0000 </r>
       <r>    8.4486    0.0000 </r>
       <r>    8.4491    0.0000 </r>
       <r>    8.4491    0.0000 </r>
       <r>    8.4491    0.0000 </r>
       <r>    8.4491    0.0000 </r>
       <r>    8.4496    0.0000 </r>
       <r>    8.7254    0.0000 </r>
       <r>    8.7260    0.0000 </r>
       <r>    8.7261    0.0000 </r>
       <r>    8.7261    0.0000 </r>
       <r>    8.7261    0.0000 </r>
       <r>    8.7267    0.0000 </r>
       <r>    8.9742    0.0000 </r>
       <r>    8.9755    0.0000 </r>
       <r>    8.9755    0.0000 </r>
       <r>    8.9755    0.0000 </r>
       <r>    8.9755    0.0000 </r>
       <r>    8.9769    0.0000 </r>
       <r>    9.0821    0.0000 </r>
       <r>    9.0826    0.0000 </r>
       <r>    9.0826    0.0000 </r>
       <r>    9.0832    0.0000 </r>
       <r>    9.0832    0.0000 </r>
       <r>    9.0833    0.0000 </r>
       <r>    9.0833    0.0000 </r>
       <r>    9.0833    0.0000 </r>
       <r>    9.0833    0.0000 </r>
       <r>    9.0839    0.0000 </r>
       <r>    9.0839    0.0000 </r>
       <r>    9.0844    0.0000 </r>
       <r>   10.3328    0.0000 </r>
       <r>   10.3328    0.0000 </r>
       <r>   10.3328    0.0000 </r>
      </set>
      <set comment="kpoint 2">
       <r>  -37.7516    1.0000 </r>
       <r>  -37.7514    1.0000 </r>
       <r>  -37.7509    1.0000 </r>
       <r>  -37.7509    1.0000 </r>
       <r>  -37.7508    1.0000 </r>
       <r>  -37.7508    1.0000 </r>
       <r>  -37.7505    1.0000 </r>
       <r>  -37.7502    1.0000 </r>
       <r>  -37.7502    1.0000 </r>
       <r>  -37.7497    1.0000 </r>
       <r>  -37.7497    1.0000 </r>
       <r>  -37.7497    1.0000 </r>
       <r>  -37.7496    1.0000 </r>
       <r>  -37.7496    1.0000 </r>
       <r>  -37.7495    1.0000 </r>
       <r>  -37.7494    1.0000 </r>
       <r>  -37.7494    1.0000 </r>
       <r>  -37.7494    1.0000 </r>
       <r>  -37.7494    1.0000 </r>
       <r>  -37.7494    1.0000 </r>
       <r>  -37.7494    1.0000 </r>
       <r>  -37.7492    1.0000 </r>
       <r>  -37.7489    1.0000 </r>
       <r>  -37.7489    1.0000 </r>
       <r>  -37.7489    1.0000 </r>
       <r>  -37.7487    1.0000 </r>
       <r>  -37.7483    1.0000 </r>
       <r>  -37.7483    1.0000 </r>
       <r>  -37.7483    1.0000 </r>
       <r>  -37.7482    1.0000 </r>
       <r>  -37.7480    1.0000 </r>
       <r>  -37.7480    1.0000 </r>
       <r>  -37.7480    1.0000 </r>
       <r>  -37.7479    1.0000 </r>
       <r>  -37.7477    1.0000 </r>
       <r>  -37.7477    1.0000 </r>
       <r>  -37.7477    1.0000 </r>
       <r>  -37.7477    1.0000 </r>
       <r>  -37.7476    1.0000 </r>
       <r>  -37.7476    1.0000 </r>
       <r>  -37.7476    1.0000 </r>
       <r>  -37.7470    1.0000 </r>
       <r>  -37.7470    1.0000 </r>
       <r>  -37.7468    1.0000 </r>
       <r>  -37.7467    1.0000 </r>
       <r>  -37.7466    1.0000 </r>
       <r>  -37.7466    1.0000 </r>
       <r>  -37.7465    1.0000 </r>
       <r>  -37.7465    1.0000 </r>
       <r>  -37.7465    1.0000 </r>
       <r>  -37.7465    1.0000 </r>
       <r>  -37.7463    1.0000 </r>
       <r>  -37.7462    1.0000 </r>
       <r>  -37.7462    1.0000 </r>
       <r>  -37.7462    1.0000 </r>
       <r>  -37.7461    1.0000 </r>
       <r>  -37.7461    1.0000 </r>
       <r>  -37.7460    1.0000 </r>
       <r>  -37.7460    1.0000 </r>
       <r>  -37.7459    1.0000 </r>
       <r>  -37.7459    1.0000 </r>
       <r>  -37.7458    1.0000 </r>
       <r>  -37.7458    1.0000 </r>
       <r>  -37.7458    1.0000 </r>
       <r>  -37.7457    1.0000 </r>
       <r>  -37.7456    1.0000 </r>
       <r>  -37.7456    1.0000 </r>
       <r>  -37.7456    1.0000 </r>
       <r>  -37.7456    1.0000 </r>
       <r>  -37.7454    1.0000 </r>
       <r>  -37.7453    1.0000 </r>
       <r>  -37.7451    1.0000 </r>
       <r>  -37.7451    1.0000 </r>
       <r>  -37.7451    1.0000 </r>
       <r>  -37.7450    1.0000 </r>
       <r>  -37.7450    1.0000 </r>
       <r>  -37.7449    1.0000 </r>
       <r>  -37.7449    1.0000 </r>
       <r>  -37.7449    1.0000 </r>
       <r>  -37.7449    1.0000 </r>
       <r>  -37.7449    1.0000 </r>
       <r>  -37.7448    1.0000 </r>
       <r>  -37.7447    1.0000 </r>
       <r>  -37.7447    1.0000 </r>
       <r>  -37.7447    1.0000 </r>
       <r>  -37.7446    1.0000 </r>
       <r>  -37.7446    1.0000 </r>
       <r>  -37.7444    1.0000 </r>
       <r>  -37.7441    1.0000 </r>
       <r>  -37.7440    1.0000 </r>
       <r>  -37.7440    1.0000 </r>
       <r>  -37.7438    1.0000 </r>
       <r>  -37.7435    1.0000 </r>
       <r>  -37.7433    1.0000 </r>
       <r>  -37.7433    1.0000 </r>
       <r>  -37.7433    1.0000 </r>
       <r>   -8.9985    1.0000 </r>
       <r>   -8.9963    1.0000 </r>
       <r>   -8.3054    1.0000 </r>
       <r>   -8.3023    1.0000 </r>
       <r>   -8.3023    1.0000 </r>
       <r>   -8.3019    1.0000 </r>
       <r>   -8.3017    1.0000 </r>
       <r>   -8.3013    1.0000 </r>
       <r>   -8.3013    1.0000 </r>
       <r>   -8.2983    1.0000 </r>
       <r>   -7.9029    1.0000 </r>
       <r>   -7.9004    1.0000 </r>
       <r>   -7.8995    1.0000 </r>
       <r>   -7.8995    1.0000 </r>
       <r>   -7.8995    1.0000 </r>
       <r>   -7.8995    1.0000 </r>
       <r>   -7.8986    1.0000 </r>
       <r>   -7.8962    1.0000 </r>
       <r>   -7.8025    1.0000 </r>
       <r>   -7.8007    1.0000 </r>
       <r>   -7.5842    1.0000 </r>
       <r>   -7.5812    1.0000 </r>
       <r>   -7.5812    1.0000 </r>
       <r>   -7.5810    1.0000 </r>
       <r>   -7.5807    1.0000 </r>
       <r>   -7.5804    1.0000 </r>
       <r>   -7.5804    1.0000 </r>
       <r>   -7.5775    1.0000 </r>
       <r>   -7.4656    1.0000 </r>
       <r>   -7.4635    1.0000 </r>
       <r>   -7.4635    1.0000 </r>
       <r>   -7.4613    1.0000 </r>
       <r>   -0.9805    1.0000 </r>
       <r>   -0.9805    1.0000 </r>
       <r>   -0.9803    1.0000 </r>
       <r>   -0.9793    1.0000 </r>
       <r>   -0.9788    1.0000 </r>
       <r>   -0.9779    1.0000 </r>
       <r>   -0.9777    1.0000 </r>
       <r>   -0.9777    1.0000 </r>
       <r>   -0.5141    1.0000 </r>
       <r>   -0.5141    1.0000 </r>
       <r>   -0.5120    1.0000 </r>
       <r>   -0.5120    1.0000 </r>
       <r>   -0.2984    1.0000 </r>
       <r>   -0.2959    1.0000 </r>
       <r>   -0.2734    1.0000 </r>
       <r>   -0.2710    1.0000 </r>
       <r>   -0.2706    1.0000 </r>
       <r>   -0.2706    1.0000 </r>
       <r>   -0.2702    1.0000 </r>
       <r>   -0.2702    1.0000 </r>
       <r>   -0.2699    1.0000 </r>
       <r>   -0.2672    1.0000 </r>
       <r>    0.3755    1.0000 </r>
       <r>    0.3755    1.0000 </r>
       <r>    0.3764    1.0000 </r>
       <r>    0.3765    1.0000 </r>
       <r>    0.3765    1.0000 </r>
       <r>    0.3766    1.0000 </r>
       <r>    0.3774    1.0000 </r>
       <r>    0.3774    1.0000 </r>
       <r>    0.4460    1.0000 </r>
       <r>    0.4460    1.0000 </r>
       <r>    0.4467    1.0000 </r>
       <r>    0.4472    1.0000 </r>
       <r>    0.4479    1.0000 </r>
       <r>    0.4483    1.0000 </r>
       <r>    0.4491    1.0000 </r>
       <r>    0.4491    1.0000 </r>
       <r>    1.2033    1.0000 </r>
       <r>    1.2033    1.0000 </r>
       <r>    1.2046    1.0000 </r>
       <r>    1.2046    1.0000 </r>
       <r>    1.4046    1.0000 </r>
       <r>    1.4070    1.0000 </r>
       <r>    1.4073    1.0000 </r>
       <r>    1.4096    1.0000 </r>
       <r>    1.9814    1.0000 </r>
       <r>    1.9814    1.0000 </r>
       <r>    1.9835    1.0000 </r>
       <r>    1.9835    1.0000 </r>
       <r>    2.0111    1.0000 </r>
       <r>    2.0111    1.0000 </r>
       <r>    2.0119    1.0000 </r>
       <r>    2.0121    1.0000 </r>
       <r>    2.0127    1.0000 </r>
       <r>    2.0128    1.0000 </r>
       <r>    2.0132    1.0000 </r>
       <r>    2.0132    1.0000 </r>
       <r>    2.0184    1.0000 </r>
       <r>    2.0189    1.0000 </r>
       <r>    2.0189    1.0000 </r>
       <r>    2.0193    1.0000 </r>
       <r>    2.0194    1.0000 </r>
       <r>    2.0202    1.0000 </r>
       <r>    2.0202    1.0000 </r>
       <r>    2.0202    1.0000 </r>
       <r>    2.1099    1.0000 </r>
       <r>    2.1126    1.0000 </r>
       <r>    2.1128    1.0000 </r>
       <r>    2.1128    1.0000 </r>
       <r>    2.1132    1.0000 </r>
       <r>    2.1132    1.0000 </r>
       <r>    2.1134    1.0000 </r>
       <r>    2.1161    1.0000 </r>
       <r>    2.4676    1.0000 </r>
       <r>    2.4696    1.0000 </r>
       <r>    2.8050    1.0000 </r>
       <r>    2.8079    1.0000 </r>
       <r>    2.8085    1.0000 </r>
       <r>    2.8085    1.0000 </r>
       <r>    2.8086    1.0000 </r>
       <r>    2.8086    1.0000 </r>
       <r>    2.8092    1.0000 </r>
       <r>    2.8122    1.0000 </r>
       <r>    2.8734    1.0000 </r>
       <r>    2.8734    1.0000 </r>
       <r>    2.8753    1.0000 </r>
       <r>    2.8753    1.0000 </r>
       <r>    2.8754    1.0000 </r>
       <r>    2.8754    1.0000 </r>
       <r>    2.8773    1.0000 </r>
       <r>    2.8773    1.0000 </r>
       <r>    3.1671    1.0000 </r>
       <r>    3.1671    1.0000 </r>
       <r>    3.1688    1.0000 </r>
       <r>    3.1688    1.0000 </r>
       <r>    6.8561    0.0000 </r>
       <r>    6.8574    0.0000 </r>
       <r>    7.2463    0.0000 </r>
       <r>    7.2471    0.0000 </r>
       <r>    7.2475    0.0000 </r>
       <r>    7.2483    0.0000 </r>
       <r>    8.0477    0.0000 </r>
       <r>    8.0501    0.0000 </r>
       <r>    8.2790    0.0000 </r>
       <r>    8.2798    0.0000 </r>
       <r>    8.6884    0.0000 </r>
       <r>    8.6887    0.0000 </r>
       <r>    8.6887    0.0000 </r>
       <r>    8.6888    0.0000 </r>
       <r>    8.6889    0.0000 </r>
       <r>    8.6889    0.0000 </r>
       <r>    8.6889    0.0000 </r>
       <r>    8.6893    0.0000 </r>
       <r>    8.7177    0.0000 </r>
       <r>    8.7177    0.0000 </r>
       <r>    8.7182    0.0000 </r>
       <r>    8.7182    0.0000 </r>
       <r>    8.7197    0.0000 </r>
       <r>    8.7197    0.0000 </r>
       <r>    8.7201    0.0000 </r>
       <r>    8.7201    0.0000 </r>
       <r>    8.8500    0.0000 </r>
       <r>    8.8500    0.0000 </r>
       <r>    8.8527    0.0000 </r>
       <r>    8.8527    0.0000 </r>
       <r>    9.2420    0.0000 </r>
       <r>    9.2424    0.0000 </r>
       <r>    9.2424    0.0000 </r>
       <r>    9.2429    0.0000 </r>
       <r>    9.2430    0.0000 </r>
       <r>    9.2435    0.0000 </r>
       <r>    9.2435    0.0000 </r>
       <r>    9.2439    0.0000 </r>
       <r>    9.8605    0.0000 </r>
       <r>    9.8623    0.0000 </r>
       <r>    9.8644    0.0000 </r>
       <r>    9.8673    0.0000 </r>
       <r>    9.8710    0.0000 </r>
       <r>    9.8793    0.0000 </r>
      </set>
      <set comment="kpoint 3">
       <r>  -37.7513    1.0000 </r>
       <r>  -37.7511    1.0000 </r>
       <r>  -37.7509    1.0000 </r>
       <r>  -37.7509    1.0000 </r>
       <r>  -37.7508    1.0000 </r>
       <r>  -37.7507    1.0000 </r>
       <r>  -37.7507    1.0000 </r>
       <r>  -37.7504    1.0000 </r>
       <r>  -37.7504    1.0000 </r>
       <r>  -37.7503    1.0000 </r>
       <r>  -37.7503    1.0000 </r>
       <r>  -37.7500    1.0000 </r>
       <r>  -37.7500    1.0000 </r>
       <r>  -37.7499    1.0000 </r>
       <r>  -37.7494    1.0000 </r>
       <r>  -37.7492    1.0000 </r>
       <r>  -37.7492    1.0000 </r>
       <r>  -37.7491    1.0000 </r>
       <r>  -37.7490    1.0000 </r>
       <r>  -37.7490    1.0000 </r>
       <r>  -37.7488    1.0000 </r>
       <r>  -37.7487    1.0000 </r>
       <r>  -37.7486    1.0000 </r>
       <r>  -37.7485    1.0000 </r>
       <r>  -37.7485    1.0000 </r>
       <r>  -37.7484    1.0000 </r>
       <r>  -37.7484    1.0000 </r>
       <r>  -37.7484    1.0000 </r>
       <r>  -37.7482    1.0000 </r>
       <r>  -37.7482    1.0000 </r>
       <r>  -37.7482    1.0000 </r>
       <r>  -37.7481    1.0000 </r>
       <r>  -37.7481    1.0000 </r>
       <r>  -37.7481    1.0000 </r>
       <r>  -37.7480    1.0000 </r>
       <r>  -37.7480    1.0000 </r>
       <r>  -37.7479    1.0000 </r>
       <r>  -37.7479    1.0000 </r>
       <r>  -37.7477    1.0000 </r>
       <r>  -37.7475    1.0000 </r>
       <r>  -37.7474    1.0000 </r>
       <r>  -37.7473    1.0000 </r>
       <r>  -37.7472    1.0000 </r>
       <r>  -37.7470    1.0000 </r>
       <r>  -37.7469    1.0000 </r>
       <r>  -37.7468    1.0000 </r>
       <r>  -37.7468    1.0000 </r>
       <r>  -37.7467    1.0000 </r>
       <r>  -37.7466    1.0000 </r>
       <r>  -37.7465    1.0000 </r>
       <r>  -37.7463    1.0000 </r>
       <r>  -37.7463    1.0000 </r>
       <r>  -37.7462    1.0000 </r>
       <r>  -37.7462    1.0000 </r>
       <r>  -37.7461    1.0000 </r>
       <r>  -37.7461    1.0000 </r>
       <r>  -37.7460    1.0000 </r>
       <r>  -37.7459    1.0000 </r>
       <r>  -37.7458    1.0000 </r>
       <r>  -37.7458    1.0000 </r>
       <r>  -37.7458    1.0000 </r>
       <r>  -37.7457    1.0000 </r>
       <r>  -37.7457    1.0000 </r>
       <r>  -37.7456    1.0000 </r>
       <r>  -37.7456    1.0000 </r>
       <r>  -37.7456    1.0000 </r>
       <r>  -37.7455    1.0000 </r>
       <r>  -37.7455    1.0000 </r>
       <r>  -37.7455    1.0000 </r>
       <r>  -37.7455    1.0000 </r>
       <r>  -37.7455    1.0000 </r>
       <r>  -37.7455    1.0000 </r>
       <r>  -37.7454    1.0000 </r>
       <r>  -37.7453    1.0000 </r>
       <r>  -37.7452    1.0000 </r>
       <r>  -37.7452    1.0000 </r>
       <r>  -37.7450    1.0000 </r>
       <r>  -37.7449    1.0000 </r>
       <r>  -37.7449    1.0000 </r>
       <r>  -37.7449    1.0000 </r>
       <r>  -37.7449    1.0000 </r>
       <r>  -37.7449    1.0000 </r>
       <r>  -37.7448    1.0000 </r>
       <r>  -37.7446    1.0000 </r>
       <r>  -37.7444    1.0000 </r>
       <r>  -37.7443    1.0000 </r>
       <r>  -37.7443    1.0000 </r>
       <r>  -37.7442    1.0000 </r>
       <r>  -37.7441    1.0000 </r>
       <r>  -37.7441    1.0000 </r>
       <r>  -37.7439    1.0000 </r>
       <r>  -37.7437    1.0000 </r>
       <r>  -37.7436    1.0000 </r>
       <r>  -37.7435    1.0000 </r>
       <r>  -37.7434    1.0000 </r>
       <r>  -37.7434    1.0000 </r>
       <r>   -8.9974    1.0000 </r>
       <r>   -8.9974    1.0000 </r>
       <r>   -8.3053    1.0000 </r>
       <r>   -8.3020    1.0000 </r>
       <r>   -8.3018    1.0000 </r>
       <r>   -8.3018    1.0000 </r>
       <r>   -8.3018    1.0000 </r>
       <r>   -8.3018    1.0000 </r>
       <r>   -8.3016    1.0000 </r>
       <r>   -8.2984    1.0000 </r>
       <r>   -7.8999    1.0000 </r>
       <r>   -7.8996    1.0000 </r>
       <r>   -7.8995    1.0000 </r>
       <r>   -7.8995    1.0000 </r>
       <r>   -7.8995    1.0000 </r>
       <r>   -7.8995    1.0000 </r>
       <r>   -7.8994    1.0000 </r>
       <r>   -7.8993    1.0000 </r>
       <r>   -7.8016    1.0000 </r>
       <r>   -7.8015    1.0000 </r>
       <r>   -7.5842    1.0000 </r>
       <r>   -7.5810    1.0000 </r>
       <r>   -7.5808    1.0000 </r>
       <r>   -7.5808    1.0000 </r>
       <r>   -7.5808    1.0000 </r>
       <r>   -7.5808    1.0000 </r>
       <r>   -7.5807    1.0000 </r>
       <r>   -7.5774    1.0000 </r>
       <r>   -7.4635    1.0000 </r>
       <r>   -7.4635    1.0000 </r>
       <r>   -7.4635    1.0000 </r>
       <r>   -7.4633    1.0000 </r>
       <r>   -0.9794    1.0000 </r>
       <r>   -0.9792    1.0000 </r>
       <r>   -0.9792    1.0000 </r>
       <r>   -0.9791    1.0000 </r>
       <r>   -0.9790    1.0000 </r>
       <r>   -0.9790    1.0000 </r>
       <r>   -0.9790    1.0000 </r>
       <r>   -0.9788    1.0000 </r>
       <r>   -0.5131    1.0000 </r>
       <r>   -0.5131    1.0000 </r>
       <r>   -0.5131    1.0000 </r>
       <r>   -0.5131    1.0000 </r>
       <r>   -0.2972    1.0000 </r>
       <r>   -0.2970    1.0000 </r>
       <r>   -0.2725    1.0000 </r>
       <r>   -0.2706    1.0000 </r>
       <r>   -0.2704    1.0000 </r>
       <r>   -0.2704    1.0000 </r>
       <r>   -0.2704    1.0000 </r>
       <r>   -0.2704    1.0000 </r>
       <r>   -0.2703    1.0000 </r>
       <r>   -0.2682    1.0000 </r>
       <r>    0.3755    1.0000 </r>
       <r>    0.3759    1.0000 </r>
       <r>    0.3763    1.0000 </r>
       <r>    0.3764    1.0000 </r>
       <r>    0.3765    1.0000 </r>
       <r>    0.3765    1.0000 </r>
       <r>    0.3771    1.0000 </r>
       <r>    0.3775    1.0000 </r>
       <r>    0.4463    1.0000 </r>
       <r>    0.4475    1.0000 </r>
       <r>    0.4475    1.0000 </r>
       <r>    0.4475    1.0000 </r>
       <r>    0.4476    1.0000 </r>
       <r>    0.4476    1.0000 </r>
       <r>    0.4477    1.0000 </r>
       <r>    0.4487    1.0000 </r>
       <r>    1.2040    1.0000 </r>
       <r>    1.2040    1.0000 </r>
       <r>    1.2040    1.0000 </r>
       <r>    1.2040    1.0000 </r>
       <r>    1.4071    1.0000 </r>
       <r>    1.4071    1.0000 </r>
       <r>    1.4071    1.0000 </r>
       <r>    1.4071    1.0000 </r>
       <r>    1.9823    1.0000 </r>
       <r>    1.9824    1.0000 </r>
       <r>    1.9825    1.0000 </r>
       <r>    1.9825    1.0000 </r>
       <r>    2.0106    1.0000 </r>
       <r>    2.0113    1.0000 </r>
       <r>    2.0120    1.0000 </r>
       <r>    2.0123    1.0000 </r>
       <r>    2.0123    1.0000 </r>
       <r>    2.0124    1.0000 </r>
       <r>    2.0125    1.0000 </r>
       <r>    2.0133    1.0000 </r>
       <r>    2.0185    1.0000 </r>
       <r>    2.0186    1.0000 </r>
       <r>    2.0194    1.0000 </r>
       <r>    2.0194    1.0000 </r>
       <r>    2.0200    1.0000 </r>
       <r>    2.0201    1.0000 </r>
       <r>    2.0201    1.0000 </r>
       <r>    2.0212    1.0000 </r>
       <r>    2.1127    1.0000 </r>
       <r>    2.1128    1.0000 </r>
       <r>    2.1129    1.0000 </r>
       <r>    2.1129    1.0000 </r>
       <r>    2.1130    1.0000 </r>
       <r>    2.1130    1.0000 </r>
       <r>    2.1133    1.0000 </r>
       <r>    2.1133    1.0000 </r>
       <r>    2.4686    1.0000 </r>
       <r>    2.4686    1.0000 </r>
       <r>    2.8065    1.0000 </r>
       <r>    2.8084    1.0000 </r>
       <r>    2.8085    1.0000 </r>
       <r>    2.8086    1.0000 </r>
       <r>    2.8086    1.0000 </r>
       <r>    2.8086    1.0000 </r>
       <r>    2.8087    1.0000 </r>
       <r>    2.8106    1.0000 </r>
       <r>    2.8751    1.0000 </r>
       <r>    2.8753    1.0000 </r>
       <r>    2.8753    1.0000 </r>
       <r>    2.8753    1.0000 </r>
       <r>    2.8753    1.0000 </r>
       <r>    2.8753    1.0000 </r>
       <r>    2.8754    1.0000 </r>
       <r>    2.8756    1.0000 </r>
       <r>    3.1680    1.0000 </r>
       <r>    3.1680    1.0000 </r>
       <r>    3.1680    1.0000 </r>
       <r>    3.1680    1.0000 </r>
       <r>    6.8567    0.0000 </r>
       <r>    6.8567    0.0000 </r>
       <r>    7.2473    0.0000 </r>
       <r>    7.2473    0.0000 </r>
       <r>    7.2473    0.0000 </r>
       <r>    7.2473    0.0000 </r>
       <r>    8.0489    0.0000 </r>
       <r>    8.0489    0.0000 </r>
       <r>    8.2794    0.0000 </r>
       <r>    8.2794    0.0000 </r>
       <r>    8.6882    0.0000 </r>
       <r>    8.6883    0.0000 </r>
       <r>    8.6888    0.0000 </r>
       <r>    8.6888    0.0000 </r>
       <r>    8.6888    0.0000 </r>
       <r>    8.6888    0.0000 </r>
       <r>    8.6894    0.0000 </r>
       <r>    8.6894    0.0000 </r>
       <r>    8.7187    0.0000 </r>
       <r>    8.7187    0.0000 </r>
       <r>    8.7187    0.0000 </r>
       <r>    8.7188    0.0000 </r>
       <r>    8.7191    0.0000 </r>
       <r>    8.7191    0.0000 </r>
       <r>    8.7192    0.0000 </r>
       <r>    8.7192    0.0000 </r>
       <r>    8.8514    0.0000 </r>
       <r>    8.8514    0.0000 </r>
       <r>    8.8514    0.0000 </r>
       <r>    8.8514    0.0000 </r>
       <r>    9.2420    0.0000 </r>
       <r>    9.2428    0.0000 </r>
       <r>    9.2429    0.0000 </r>
       <r>    9.2429    0.0000 </r>
       <r>    9.2429    0.0000 </r>
       <r>    9.2429    0.0000 </r>
       <r>    9.2430    0.0000 </r>
       <r>    9.2438    0.0000 </r>
       <r>    9.8621    0.0000 </r>
       <r>    9.8623    0.0000 </r>
       <r>    9.8627    0.0000 </r>
       <r>    9.8638    0.0000 </r>
       <r>    9.8739    0.0000 </r>
       <r>    9.8849    0.0000 </r>
      </set>
      <set comment="kpoint 4">
       <r>  -37.7512    1.0000 </r>
       <r>  -37.7510    1.0000 </r>
       <r>  -37.7508    1.0000 </r>
       <r>  -37.7507    1.0000 </r>
       <r>  -37.7506    1.0000 </r>
       <r>  -37.7505    1.0000 </r>
       <r>  -37.7505    1.0000 </r>
       <r>  -37.7502    1.0000 </r>
       <r>  -37.7502    1.0000 </r>
       <r>  -37.7501    1.0000 </r>
       <r>  -37.7500    1.0000 </r>
       <r>  -37.7499    1.0000 </r>
       <r>  -37.7498    1.0000 </r>
       <r>  -37.7498    1.0000 </r>
       <r>  -37.7495    1.0000 </r>
       <r>  -37.7495    1.0000 </r>
       <r>  -37.7494    1.0000 </r>
       <r>  -37.7494    1.0000 </r>
       <r>  -37.7492    1.0000 </r>
       <r>  -37.7492    1.0000 </r>
       <r>  -37.7491    1.0000 </r>
       <r>  -37.7491    1.0000 </r>
       <r>  -37.7491    1.0000 </r>
       <r>  -37.7490    1.0000 </r>
       <r>  -37.7490    1.0000 </r>
       <r>  -37.7487    1.0000 </r>
       <r>  -37.7487    1.0000 </r>
       <r>  -37.7486    1.0000 </r>
       <r>  -37.7483    1.0000 </r>
       <r>  -37.7483    1.0000 </r>
       <r>  -37.7481    1.0000 </r>
       <r>  -37.7479    1.0000 </r>
       <r>  -37.7479    1.0000 </r>
       <r>  -37.7476    1.0000 </r>
       <r>  -37.7473    1.0000 </r>
       <r>  -37.7473    1.0000 </r>
       <r>  -37.7473    1.0000 </r>
       <r>  -37.7472    1.0000 </r>
       <r>  -37.7472    1.0000 </r>
       <r>  -37.7471    1.0000 </r>
       <r>  -37.7470    1.0000 </r>
       <r>  -37.7470    1.0000 </r>
       <r>  -37.7468    1.0000 </r>
       <r>  -37.7466    1.0000 </r>
       <r>  -37.7466    1.0000 </r>
       <r>  -37.7466    1.0000 </r>
       <r>  -37.7466    1.0000 </r>
       <r>  -37.7465    1.0000 </r>
       <r>  -37.7464    1.0000 </r>
       <r>  -37.7464    1.0000 </r>
       <r>  -37.7463    1.0000 </r>
       <r>  -37.7463    1.0000 </r>
       <r>  -37.7463    1.0000 </r>
       <r>  -37.7463    1.0000 </r>
       <r>  -37.7463    1.0000 </r>
       <r>  -37.7462    1.0000 </r>
       <r>  -37.7462    1.0000 </r>
       <r>  -37.7461    1.0000 </r>
       <r>  -37.7461    1.0000 </r>
       <r>  -37.7460    1.0000 </r>
       <r>  -37.7459    1.0000 </r>
       <r>  -37.7458    1.0000 </r>
       <r>  -37.7458    1.0000 </r>
       <r>  -37.7458    1.0000 </r>
       <r>  -37.7458    1.0000 </r>
       <r>  -37.7457    1.0000 </r>
       <r>  -37.7456    1.0000 </r>
       <r>  -37.7455    1.0000 </r>
       <r>  -37.7454    1.0000 </r>
       <r>  -37.7454    1.0000 </r>
       <r>  -37.7454    1.0000 </r>
       <r>  -37.7453    1.0000 </r>
       <r>  -37.7453    1.0000 </r>
       <r>  -37.7453    1.0000 </r>
       <r>  -37.7453    1.0000 </r>
       <r>  -37.7452    1.0000 </r>
       <r>  -37.7451    1.0000 </r>
       <r>  -37.7451    1.0000 </r>
       <r>  -37.7451    1.0000 </r>
       <r>  -37.7450    1.0000 </r>
       <r>  -37.7450    1.0000 </r>
       <r>  -37.7449    1.0000 </r>
       <r>  -37.7448    1.0000 </r>
       <r>  -37.7445    1.0000 </r>
       <r>  -37.7444    1.0000 </r>
       <r>  -37.7443    1.0000 </r>
       <r>  -37.7443    1.0000 </r>
       <r>  -37.7443    1.0000 </r>
       <r>  -37.7441    1.0000 </r>
       <r>  -37.7440    1.0000 </r>
       <r>  -37.7438    1.0000 </r>
       <r>  -37.7436    1.0000 </r>
       <r>  -37.7435    1.0000 </r>
       <r>  -37.7435    1.0000 </r>
       <r>  -37.7434    1.0000 </r>
       <r>  -37.7433    1.0000 </r>
       <r>   -8.8070    1.0000 </r>
       <r>   -8.8053    1.0000 </r>
       <r>   -8.8048    1.0000 </r>
       <r>   -8.8031    1.0000 </r>
       <r>   -8.1826    1.0000 </r>
       <r>   -8.1797    1.0000 </r>
       <r>   -8.1796    1.0000 </r>
       <r>   -8.1793    1.0000 </r>
       <r>   -8.1791    1.0000 </r>
       <r>   -8.1788    1.0000 </r>
       <r>   -8.1786    1.0000 </r>
       <r>   -8.1759    1.0000 </r>
       <r>   -7.7315    1.0000 </r>
       <r>   -7.7287    1.0000 </r>
       <r>   -7.7285    1.0000 </r>
       <r>   -7.7282    1.0000 </r>
       <r>   -7.7281    1.0000 </r>
       <r>   -7.7278    1.0000 </r>
       <r>   -7.7277    1.0000 </r>
       <r>   -7.7252    1.0000 </r>
       <r>   -7.6642    1.0000 </r>
       <r>   -7.6616    1.0000 </r>
       <r>   -7.6616    1.0000 </r>
       <r>   -7.6612    1.0000 </r>
       <r>   -7.6611    1.0000 </r>
       <r>   -7.6608    1.0000 </r>
       <r>   -7.6607    1.0000 </r>
       <r>   -7.6578    1.0000 </r>
       <r>   -7.4874    1.0000 </r>
       <r>   -7.4858    1.0000 </r>
       <r>   -7.4853    1.0000 </r>
       <r>   -7.4836    1.0000 </r>
       <r>   -0.8800    1.0000 </r>
       <r>   -0.8798    1.0000 </r>
       <r>   -0.8793    1.0000 </r>
       <r>   -0.8785    1.0000 </r>
       <r>   -0.8783    1.0000 </r>
       <r>   -0.8775    1.0000 </r>
       <r>   -0.8770    1.0000 </r>
       <r>   -0.8768    1.0000 </r>
       <r>   -0.3237    1.0000 </r>
       <r>   -0.3228    1.0000 </r>
       <r>   -0.3211    1.0000 </r>
       <r>   -0.3208    1.0000 </r>
       <r>   -0.3206    1.0000 </r>
       <r>   -0.3204    1.0000 </r>
       <r>   -0.3191    1.0000 </r>
       <r>   -0.3190    1.0000 </r>
       <r>   -0.3163    1.0000 </r>
       <r>   -0.3154    1.0000 </r>
       <r>   -0.3149    1.0000 </r>
       <r>   -0.3149    1.0000 </r>
       <r>   -0.3149    1.0000 </r>
       <r>   -0.3140    1.0000 </r>
       <r>   -0.3136    1.0000 </r>
       <r>   -0.3135    1.0000 </r>
       <r>   -0.2645    1.0000 </r>
       <r>   -0.2630    1.0000 </r>
       <r>   -0.2624    1.0000 </r>
       <r>   -0.2608    1.0000 </r>
       <r>    0.2556    1.0000 </r>
       <r>    0.2561    1.0000 </r>
       <r>    0.2567    1.0000 </r>
       <r>    0.2572    1.0000 </r>
       <r>    1.3148    1.0000 </r>
       <r>    1.3156    1.0000 </r>
       <r>    1.3163    1.0000 </r>
       <r>    1.3164    1.0000 </r>
       <r>    1.3166    1.0000 </r>
       <r>    1.3167    1.0000 </r>
       <r>    1.3174    1.0000 </r>
       <r>    1.3181    1.0000 </r>
       <r>    1.4162    1.0000 </r>
       <r>    1.4183    1.0000 </r>
       <r>    1.4186    1.0000 </r>
       <r>    1.4188    1.0000 </r>
       <r>    1.4189    1.0000 </r>
       <r>    1.4191    1.0000 </r>
       <r>    1.4194    1.0000 </r>
       <r>    1.4215    1.0000 </r>
       <r>    1.5183    1.0000 </r>
       <r>    1.5183    1.0000 </r>
       <r>    1.5193    1.0000 </r>
       <r>    1.5193    1.0000 </r>
       <r>    1.8771    1.0000 </r>
       <r>    1.8778    1.0000 </r>
       <r>    1.8790    1.0000 </r>
       <r>    1.8791    1.0000 </r>
       <r>    1.8792    1.0000 </r>
       <r>    1.8794    1.0000 </r>
       <r>    1.8805    1.0000 </r>
       <r>    1.8812    1.0000 </r>
       <r>    2.1116    1.0000 </r>
       <r>    2.1122    1.0000 </r>
       <r>    2.1137    1.0000 </r>
       <r>    2.1143    1.0000 </r>
       <r>    2.3237    1.0000 </r>
       <r>    2.3245    1.0000 </r>
       <r>    2.3250    1.0000 </r>
       <r>    2.3253    1.0000 </r>
       <r>    2.3255    1.0000 </r>
       <r>    2.3259    1.0000 </r>
       <r>    2.3264    1.0000 </r>
       <r>    2.3271    1.0000 </r>
       <r>    2.5625    1.0000 </r>
       <r>    2.5632    1.0000 </r>
       <r>    2.5633    1.0000 </r>
       <r>    2.5637    1.0000 </r>
       <r>    2.5639    1.0000 </r>
       <r>    2.5643    1.0000 </r>
       <r>    2.5643    1.0000 </r>
       <r>    2.5651    1.0000 </r>
       <r>    2.6894    1.0000 </r>
       <r>    2.6905    1.0000 </r>
       <r>    2.6920    1.0000 </r>
       <r>    2.6920    1.0000 </r>
       <r>    2.6921    1.0000 </r>
       <r>    2.6921    1.0000 </r>
       <r>    2.6936    1.0000 </r>
       <r>    2.6948    1.0000 </r>
       <r>    2.7693    1.0000 </r>
       <r>    2.7703    1.0000 </r>
       <r>    2.7708    1.0000 </r>
       <r>    2.7719    1.0000 </r>
       <r>    3.3885    1.0000 </r>
       <r>    3.3890    1.0000 </r>
       <r>    3.3907    1.0000 </r>
       <r>    3.3912    1.0000 </r>
       <r>    7.3261    0.0000 </r>
       <r>    7.3263    0.0000 </r>
       <r>    7.3275    0.0000 </r>
       <r>    7.3277    0.0000 </r>
       <r>    7.7912    0.0000 </r>
       <r>    7.7918    0.0000 </r>
       <r>    7.7918    0.0000 </r>
       <r>    7.7920    0.0000 </r>
       <r>    7.7925    0.0000 </r>
       <r>    7.7927    0.0000 </r>
       <r>    7.7927    0.0000 </r>
       <r>    7.7933    0.0000 </r>
       <r>    8.6672    0.0000 </r>
       <r>    8.6682    0.0000 </r>
       <r>    8.6692    0.0000 </r>
       <r>    8.6692    0.0000 </r>
       <r>    8.6693    0.0000 </r>
       <r>    8.6693    0.0000 </r>
       <r>    8.6703    0.0000 </r>
       <r>    8.6713    0.0000 </r>
       <r>    8.7898    0.0000 </r>
       <r>    8.7905    0.0000 </r>
       <r>    8.7907    0.0000 </r>
       <r>    8.7914    0.0000 </r>
       <r>    9.0129    0.0000 </r>
       <r>    9.0129    0.0000 </r>
       <r>    9.0130    0.0000 </r>
       <r>    9.0131    0.0000 </r>
       <r>    9.0137    0.0000 </r>
       <r>    9.0138    0.0000 </r>
       <r>    9.0139    0.0000 </r>
       <r>    9.0140    0.0000 </r>
       <r>    9.1182    0.0000 </r>
       <r>    9.1187    0.0000 </r>
       <r>    9.1202    0.0000 </r>
       <r>    9.1205    0.0000 </r>
       <r>    9.1210    0.0000 </r>
       <r>    9.1213    0.0000 </r>
       <r>    9.1228    0.0000 </r>
       <r>    9.1232    0.0000 </r>
       <r>    9.4945    0.0000 </r>
       <r>    9.4951    0.0000 </r>
       <r>    9.4958    0.0000 </r>
       <r>    9.4961    0.0000 </r>
      </set>
      <set comment="kpoint 5">
       <r>  -37.7511    1.0000 </r>
       <r>  -37.7510    1.0000 </r>
       <r>  -37.7510    1.0000 </r>
       <r>  -37.7510    1.0000 </r>
       <r>  -37.7504    1.0000 </r>
       <r>  -37.7504    1.0000 </r>
       <r>  -37.7504    1.0000 </r>
       <r>  -37.7504    1.0000 </r>
       <r>  -37.7501    1.0000 </r>
       <r>  -37.7498    1.0000 </r>
       <r>  -37.7498    1.0000 </r>
       <r>  -37.7498    1.0000 </r>
       <r>  -37.7498    1.0000 </r>
       <r>  -37.7496    1.0000 </r>
       <r>  -37.7496    1.0000 </r>
       <r>  -37.7496    1.0000 </r>
       <r>  -37.7496    1.0000 </r>
       <r>  -37.7495    1.0000 </r>
       <r>  -37.7495    1.0000 </r>
       <r>  -37.7495    1.0000 </r>
       <r>  -37.7491    1.0000 </r>
       <r>  -37.7490    1.0000 </r>
       <r>  -37.7490    1.0000 </r>
       <r>  -37.7489    1.0000 </r>
       <r>  -37.7489    1.0000 </r>
       <r>  -37.7489    1.0000 </r>
       <r>  -37.7489    1.0000 </r>
       <r>  -37.7486    1.0000 </r>
       <r>  -37.7481    1.0000 </r>
       <r>  -37.7481    1.0000 </r>
       <r>  -37.7480    1.0000 </r>
       <r>  -37.7479    1.0000 </r>
       <r>  -37.7478    1.0000 </r>
       <r>  -37.7477    1.0000 </r>
       <r>  -37.7476    1.0000 </r>
       <r>  -37.7473    1.0000 </r>
       <r>  -37.7473    1.0000 </r>
       <r>  -37.7472    1.0000 </r>
       <r>  -37.7472    1.0000 </r>
       <r>  -37.7468    1.0000 </r>
       <r>  -37.7468    1.0000 </r>
       <r>  -37.7468    1.0000 </r>
       <r>  -37.7468    1.0000 </r>
       <r>  -37.7468    1.0000 </r>
       <r>  -37.7468    1.0000 </r>
       <r>  -37.7468    1.0000 </r>
       <r>  -37.7467    1.0000 </r>
       <r>  -37.7467    1.0000 </r>
       <r>  -37.7467    1.0000 </r>
       <r>  -37.7467    1.0000 </r>
       <r>  -37.7464    1.0000 </r>
[...]
      </set>
     </set>
    </set>
   </array>
  </eigenvalues>
  <separator name="orbital magnetization" >
   <v name="MAGDIPOLOUT">      0.00000000      0.00000000      0.00000000</v>
  </separator>
  <dos>
   <i name="efermi">      3.61300145 </i>
   <total>
    <array>
     <dimension dim="1">gridpoints</dimension>
     <dimension dim="2">spin</dimension>
     <field>energy</field>
     <field>total</field>
     <field>integrated</field>
     <set>
      <set comment="spin 1">
       <r>   -40.1560     0.0000     0.0000 </r>
       <r>   -39.9797     0.0000     0.0000 </r>
       <r>   -39.8034     0.0000     0.0000 </r>
       <r>   -39.6271     0.0000     0.0000 </r>
       <r>   -39.4508     0.0000     0.0000 </r>
       <r>   -39.2744     0.0000     0.0000 </r>
       <r>   -39.0981     0.0000     0.0000 </r>
       <r>   -38.9218     0.0000     0.0000 </r>
       <r>   -38.7455     0.0000     0.0000 </r>
       <r>   -38.5692     0.0000     0.0000 </r>
       <r>   -38.3929     0.0000     0.0000 </r>
       <r>   -38.2166     0.0000     0.0000 </r>
       <r>   -38.0403     0.0000     0.0000 </r>
       <r>   -37.8640     0.0000     0.0000 </r>
       <r>   -37.6877  1088.9900   192.0000 </r>
       <r>   -37.5113     0.0000   192.0000 </r>
       <r>   -37.3350     0.0000   192.0000 </r>
       <r>   -37.1587     0.0000   192.0000 </r>
       <r>   -36.9824     0.0000   192.0000 </r>
       <r>   -36.8061     0.0000   192.0000 </r>
       <r>   -36.6298     0.0000   192.0000 </r>
       <r>   -36.4535     0.0000   192.0000 </r>
       <r>   -36.2772     0.0000   192.0000 </r>
       <r>   -36.1009     0.0000   192.0000 </r>
       <r>   -35.9246     0.0000   192.0000 </r>
       <r>   -35.7482     0.0000   192.0000 </r>
       <r>   -35.5719     0.0000   192.0000 </r>
       <r>   -35.3956     0.0000   192.0000 </r>
       <r>   -35.2193     0.0000   192.0000 </r>
       <r>   -35.0430     0.0000   192.0000 </r>
       <r>   -34.8667     0.0000   192.0000 </r>
       <r>   -34.6904     0.0000   192.0000 </r>
       <r>   -34.5141     0.0000   192.0000 </r>
       <r>   -34.3378     0.0000   192.0000 </r>
       <r>   -34.1615     0.0000   192.0000 </r>
       <r>   -33.9851     0.0000   192.0000 </r>
       <r>   -33.8088     0.0000   192.0000 </r>
       <r>   -33.6325     0.0000   192.0000 </r>
       <r>   -33.4562     0.0000   192.0000 </r>
       <r>   -33.2799     0.0000   192.0000 </r>
       <r>   -33.1036     0.0000   192.0000 </r>
       <r>   -32.9273     0.0000   192.0000 </r>
       <r>   -32.7510     0.0000   192.0000 </r>
       <r>   -32.5747     0.0000   192.0000 </r>
       <r>   -32.3983     0.0000   192.0000 </r>
       <r>   -32.2220     0.0000   192.0000 </r>
       <r>   -32.0457     0.0000   192.0000 </r>
       <r>   -31.8694     0.0000   192.0000 </r>
       <r>   -31.6931     0.0000   192.0000 </r>
       <r>   -31.5168     0.0000   192.0000 </r>
       <r>   -31.3405     0.0000   192.0000 </r>
       <r>   -31.1642     0.0000   192.0000 </r>
       <r>   -30.9879     0.0000   192.0000 </r>
       <r>   -30.8116     0.0000   192.0000 </r>
       <r>   -30.6352     0.0000   192.0000 </r>
       <r>   -30.4589     0.0000   192.0000 </r>
       <r>   -30.2826     0.0000   192.0000 </r>
       <r>   -30.1063     0.0000   192.0000 </r>
       <r>   -29.9300     0.0000   192.0000 </r>
       <r>   -29.7537     0.0000   192.0000 </r>
       <r>   -29.5774     0.0000   192.0000 </r>
       <r>   -29.4011     0.0000   192.0000 </r>
       <r>   -29.2248     0.0000   192.0000 </r>
       <r>   -29.0485     0.0000   192.0000 </r>
       <r>   -28.8721     0.0000   192.0000 </r>
       <r>   -28.6958     0.0000   192.0000 </r>
       <r>   -28.5195     0.0000   192.0000 </r>
       <r>   -28.3432     0.0000   192.0000 </r>
       <r>   -28.1669     0.0000   192.0000 </r>
       <r>   -27.9906     0.0000   192.0000 </r>
       <r>   -27.8143     0.0000   192.0000 </r>
       <r>   -27.6380     0.0000   192.0000 </r>
       <r>   -27.4617     0.0000   192.0000 </r>
       <r>   -27.2854     0.0000   192.0000 </r>
       <r>   -27.1090     0.0000   192.0000 </r>
       <r>   -26.9327     0.0000   192.0000 </r>
       <r>   -26.7564     0.0000   192.0000 </r>
       <r>   -26.5801     0.0000   192.0000 </r>
       <r>   -26.4038     0.0000   192.0000 </r>
       <r>   -26.2275     0.0000   192.0000 </r>
       <r>   -26.0512     0.0000   192.0000 </r>
       <r>   -25.8749     0.0000   192.0000 </r>
       <r>   -25.6986     0.0000   192.0000 </r>
       <r>   -25.5223     0.0000   192.0000 </r>
       <r>   -25.3459     0.0000   192.0000 </r>
       <r>   -25.1696     0.0000   192.0000 </r>
       <r>   -24.9933     0.0000   192.0000 </r>
       <r>   -24.8170     0.0000   192.0000 </r>
       <r>   -24.6407     0.0000   192.0000 </r>
       <r>   -24.4644     0.0000   192.0000 </r>
       <r>   -24.2881     0.0000   192.0000 </r>
       <r>   -24.1118     0.0000   192.0000 </r>
       <r>   -23.9355     0.0000   192.0000 </r>
       <r>   -23.7592     0.0000   192.0000 </r>
       <r>   -23.5828     0.0000   192.0000 </r>
       <r>   -23.4065     0.0000   192.0000 </r>
       <r>   -23.2302     0.0000   192.0000 </r>
       <r>   -23.0539     0.0000   192.0000 </r>
       <r>   -22.8776     0.0000   192.0000 </r>
       <r>   -22.7013     0.0000   192.0000 </r>
       <r>   -22.5250     0.0000   192.0000 </r>
       <r>   -22.3487     0.0000   192.0000 </r>
       <r>   -22.1724     0.0000   192.0000 </r>
       <r>   -21.9960     0.0000   192.0000 </r>
       <r>   -21.8197     0.0000   192.0000 </r>
       <r>   -21.6434     0.0000   192.0000 </r>
       <r>   -21.4671     0.0000   192.0000 </r>
       <r>   -21.2908     0.0000   192.0000 </r>
       <r>   -21.1145     0.0000   192.0000 </r>
       <r>   -20.9382     0.0000   192.0000 </r>
       <r>   -20.7619     0.0000   192.0000 </r>
       <r>   -20.5856     0.0000   192.0000 </r>
       <r>   -20.4093     0.0000   192.0000 </r>
       <r>   -20.2329     0.0000   192.0000 </r>
       <r>   -20.0566     0.0000   192.0000 </r>
       <r>   -19.8803     0.0000   192.0000 </r>
       <r>   -19.7040     0.0000   192.0000 </r>
       <r>   -19.5277     0.0000   192.0000 </r>
       <r>   -19.3514     0.0000   192.0000 </r>
       <r>   -19.1751     0.0000   192.0000 </r>
       <r>   -18.9988     0.0000   192.0000 </r>
       <r>   -18.8225     0.0000   192.0000 </r>
       <r>   -18.6462     0.0000   192.0000 </r>
       <r>   -18.4698     0.0000   192.0000 </r>
       <r>   -18.2935     0.0000   192.0000 </r>
       <r>   -18.1172     0.0000   192.0000 </r>
       <r>   -17.9409     0.0000   192.0000 </r>
       <r>   -17.7646     0.0000   192.0000 </r>
       <r>   -17.5883     0.0000   192.0000 </r>
       <r>   -17.4120     0.0000   192.0000 </r>
       <r>   -17.2357     0.0000   192.0000 </r>
       <r>   -17.0594     0.0000   192.0000 </r>
       <r>   -16.8831     0.0000   192.0000 </r>
       <r>   -16.7067     0.0000   192.0000 </r>
       <r>   -16.5304     0.0000   192.0000 </r>
       <r>   -16.3541     0.0000   192.0000 </r>
       <r>   -16.1778     0.0000   192.0000 </r>
       <r>   -16.0015     0.0000   192.0000 </r>
       <r>   -15.8252     0.0000   192.0000 </r>
       <r>   -15.6489     0.0000   192.0000 </r>
       <r>   -15.4726     0.0000   192.0000 </r>
       <r>   -15.2963     0.0000   192.0000 </r>
       <r>   -15.1200     0.0000   192.0000 </r>
       <r>   -14.9436     0.0000   192.0000 </r>
       <r>   -14.7673     0.0000   192.0000 </r>
       <r>   -14.5910     0.0000   192.0000 </r>
       <r>   -14.4147     0.0000   192.0000 </r>
       <r>   -14.2384     0.0000   192.0000 </r>
       <r>   -14.0621     0.0000   192.0000 </r>
       <r>   -13.8858     0.0000   192.0000 </r>
       <r>   -13.7095     0.0000   192.0000 </r>
       <r>   -13.5332     0.0000   192.0000 </r>
       <r>   -13.3569     0.0000   192.0000 </r>
       <r>   -13.1805     0.0000   192.0000 </r>
       <r>   -13.0042     0.0000   192.0000 </r>
       <r>   -12.8279     0.0000   192.0000 </r>
       <r>   -12.6516     0.0000   192.0000 </r>
       <r>   -12.4753     0.0000   192.0000 </r>
       <r>   -12.2990     0.0000   192.0000 </r>
       <r>   -12.1227     0.0000   192.0000 </r>
       <r>   -11.9464     0.0000   192.0000 </r>
       <r>   -11.7701     0.0000   192.0000 </r>
       <r>   -11.5937     0.0000   192.0000 </r>
       <r>   -11.4174     0.0000   192.0000 </r>
       <r>   -11.2411     0.0000   192.0000 </r>
       <r>   -11.0648     0.0000   192.0000 </r>
       <r>   -10.8885     0.0000   192.0000 </r>
       <r>   -10.7122     0.0000   192.0000 </r>
       <r>   -10.5359     0.0000   192.0000 </r>
       <r>   -10.3596     0.0000   192.0000 </r>
       <r>   -10.1833     0.0000   192.0000 </r>
       <r>   -10.0070     0.0000   192.0000 </r>
       <r>    -9.8306     0.0000   192.0000 </r>
       <r>    -9.6543     0.0000   192.0000 </r>
       <r>    -9.4780     0.0000   192.0000 </r>
       <r>    -9.3017     0.0000   192.0000 </r>
       <r>    -9.1254     1.4180   192.2500 </r>
       <r>    -8.9491     8.5077   193.7500 </r>
       <r>    -8.7728    17.0154   196.7500 </r>
       <r>    -8.5965    11.3436   198.7500 </r>
       <r>    -8.4202     8.5076   200.2500 </r>
       <r>    -8.2439    34.0309   206.2500 </r>
       <r>    -8.0675     0.0000   212.2500 </r>
       <r>    -7.8912    46.8647   220.5127 </r>
       <r>    -7.7149    33.1344   229.5919 </r>
       <r>    -7.5386    34.0309   247.7500 </r>
       <r>    -7.3623     8.5077   256.0000 </r>
       <r>    -7.1860     0.0000   256.0000 </r>
       <r>    -7.0097     0.0000   256.0000 </r>
       <r>    -6.8334     0.0000   256.0000 </r>
       <r>    -6.6571     0.0000   256.0000 </r>
       <r>    -6.4808     0.0000   256.0000 </r>
       <r>    -6.3044     0.0000   256.0000 </r>
       <r>    -6.1281     0.0000   256.0000 </r>
       <r>    -5.9518     0.0000   256.0000 </r>
       <r>    -5.7755     0.0000   256.0000 </r>
       <r>    -5.5992     0.0000   256.0000 </r>
       <r>    -5.4229     0.0000   256.0000 </r>
       <r>    -5.2466     0.0000   256.0000 </r>
       <r>    -5.0703     0.0000   256.0000 </r>
       <r>    -4.8940     0.0000   256.0000 </r>
       <r>    -4.7177     0.0000   256.0000 </r>
       <r>    -4.5413     0.0000   256.0000 </r>
       <r>    -4.3650     0.0000   256.0000 </r>
       <r>    -4.1887     0.0000   256.0000 </r>
       <r>    -4.0124     0.0000   256.0000 </r>
       <r>    -3.8361     0.0000   256.0000 </r>
       <r>    -3.6598     0.0000   256.0000 </r>
       <r>    -3.4835     0.0000   256.0000 </r>
       <r>    -3.3072     0.0000   256.0000 </r>
       <r>    -3.1309     0.0000   256.0000 </r>
       <r>    -2.9546     0.0000   256.0000 </r>
       <r>    -2.7782     0.0000   256.0000 </r>
       <r>    -2.6019     0.0000   256.0000 </r>
       <r>    -2.4256     0.0000   256.0000 </r>
       <r>    -2.2493     0.0000   256.0000 </r>
       <r>    -2.0730     0.0000   256.0000 </r>
       <r>    -1.8967     0.0000   256.0000 </r>
       <r>    -1.7204     0.0000   256.0000 </r>
       <r>    -1.5441     0.0000   256.0000 </r>
       <r>    -1.3678     5.6718   257.0000 </r>
       <r>    -1.1915     0.0000   257.0000 </r>
       <r>    -1.0151     0.0000   257.0000 </r>
       <r>    -0.8388    34.0309   269.0000 </r>
       <r>    -0.6625     0.0000   269.7500 </r>
       <r>    -0.4862    17.0141   278.7498 </r>
       <r>    -0.3099    57.7497   288.9319 </r>
       <r>    -0.1336     0.0000   304.2500 </r>
       <r>     0.0427     0.0000   304.2500 </r>
       <r>     0.2190    15.6557   307.0103 </r>
       <r>     0.3953    33.8978   316.2265 </r>
       <r>     0.5717     0.0000   322.2500 </r>
       <r>     0.7480     0.0000   324.2500 </r>
       <r>     0.9243     8.4987   325.7484 </r>
       <r>     1.1006     6.0726   326.8207 </r>
       <r>     1.2769    51.0459   339.2499 </r>
       <r>     1.4532    51.0464   354.2500 </r>
       <r>     1.6295     0.0000   357.2500 </r>
       <r>     1.8058     8.4382   358.7377 </r>
       <r>     1.9821     8.2361   366.2021 </r>
       <r>     2.1584    51.0464   388.7500 </r>
       <r>     2.3348    64.8406   400.1821 </r>
       <r>     2.5111    16.9849   403.7446 </r>
       <r>     2.6874     8.7615   412.7947 </r>
       <r>     2.8637    50.8229   429.2106 </r>
       <r>     3.0400     0.0000   437.2500 </r>
       <r>     3.2163    39.7028   444.2500 </r>
       <r>     3.3926    11.0724   446.2022 </r>
       <r>     3.5689     4.2539   448.0000 </r>
       <r>     3.7452     0.0000   448.0000 </r>
       <r>     3.9215     0.0000   448.0000 </r>
       <r>     4.0979     0.0000   448.0000 </r>
       <r>     4.2742     0.0000   448.0000 </r>
       <r>     4.4505     0.0000   448.0000 </r>
       <r>     4.6268     0.0000   448.0000 </r>
       <r>     4.8031     0.0000   448.0000 </r>
       <r>     4.9794     0.0000   448.0000 </r>
       <r>     5.1557     0.0000   448.0000 </r>
       <r>     5.3320     0.0000   448.0000 </r>
       <r>     5.5083     0.0000   448.0000 </r>
       <r>     5.6846     0.0000   448.0000 </r>
       <r>     5.8610     0.0000   448.0000 </r>
       <r>     6.0373     0.0000   448.0000 </r>
       <r>     6.2136     1.7051   448.3006 </r>
       <r>     6.3899     0.0000   448.7500 </r>
       <r>     6.5662     0.0000   448.7500 </r>
       <r>     6.7425     0.0000   448.7500 </r>
       <r>     6.9188     8.5077   450.2500 </r>
       <r>     7.0951     0.0008   450.2501 </r>
       <r>     7.2714    17.0099   453.4990 </r>
       <r>     7.4477     0.0000   456.5000 </r>
       <r>     7.6241     0.0000   456.5000 </r>
       <r>     7.8004    34.0144   462.4971 </r>
       <r>     7.9767     5.6718   470.2500 </r>
       <r>     8.1530     0.0000   471.7500 </r>
       <r>     8.3293     9.0858   473.3519 </r>
       <r>     8.5056     8.5077   476.7500 </r>
       <r>     8.6819    38.3366   483.5091 </r>
       <r>     8.8582    31.1820   501.7477 </r>
       <r>     9.0345    42.4898   509.7414 </r>
       <r>     9.2108     0.0001   518.7500 </r>
       <r>     9.3872     0.0000   524.7500 </r>
       <r>     9.5635    17.0155   527.7500 </r>
       <r>     9.7398     0.0000   527.7500 </r>
       <r>     9.9161    25.5232   532.2500 </r>
       <r>    10.0924     0.0000   532.2500 </r>
       <r>    10.2687     0.0000   535.2500 </r>
       <r>    10.4450     0.0000   536.0000 </r>
       <r>    10.6213     0.0000   536.0000 </r>
       <r>    10.7976     0.0000   536.0000 </r>
       <r>    10.9740     0.0000   536.0000 </r>
       <r>    11.1503     0.0000   536.0000 </r>
       <r>    11.3266     0.0000   536.0000 </r>
       <r>    11.5029     0.0000   536.0000 </r>
       <r>    11.6792     0.0000   536.0000 </r>
       <r>    11.8555     0.0000   536.0000 </r>
       <r>    12.0318     0.0000   536.0000 </r>
       <r>    12.2081     0.0000   536.0000 </r>
       <r>    12.3844     0.0000   536.0000 </r>
       <r>    12.5607     0.0000   536.0000 </r>
       <r>    12.7371     0.0000   536.0000 </r>
      </set>
     </set>
    </array>
   </total>
  </dos>
 </calculation>
 <structure name="finalpos" >
  <crystal>
   <varray name="basis" >
    <v>      10.39637098       0.00000000       0.00000000 </v>
    <v>       0.00000000      10.39637098       0.00000000 </v>
    <v>       0.00000000       0.00000000      10.39637098 </v>
   </varray>
   <i name="volume">   1123.68686644 </i>
   <varray name="rec_basis" >
    <v>       0.09618741       0.00000000       0.00000000 </v>
    <v>       0.00000000       0.09618741       0.00000000 </v>
    <v>       0.00000000       0.00000000       0.09618741 </v>
   </varray>
  </crystal>
  <varray name="positions" >
   <v>       0.00096187       0.00000000       0.00000000 </v>
   <v>       0.50000000       0.00000000       0.00000000 </v>
   <v>       0.00000000       0.50000000       0.00000000 </v>
   <v>       0.50000000       0.50000000       0.00000000 </v>
   <v>       0.00000000       0.00000000       0.50000000 </v>
   <v>       0.50000000       0.00000000       0.50000000 </v>
   <v>       0.00000000       0.50000000       0.50000000 </v>
   <v>       0.50000000       0.50000000       0.50000000 </v>
   <v>       0.00000000       0.25000000       0.25000000 </v>
   <v>       0.50000000       0.25000000       0.25000000 </v>
   <v>       0.00000000       0.75000000       0.25000000 </v>
   <v>       0.50000000       0.75000000       0.25000000 </v>
   <v>       0.00000000       0.25000000       0.75000000 </v>
   <v>       0.50000000       0.25000000       0.75000000 </v>
   <v>       0.00000000       0.75000000       0.75000000 </v>
   <v>       0.50000000       0.75000000       0.75000000 </v>
   <v>       0.25000000       0.00000000       0.25000000 </v>
   <v>       0.75000000       0.00000000       0.25000000 </v>
   <v>       0.25000000       0.50000000       0.25000000 </v>
   <v>       0.75000000       0.50000000       0.25000000 </v>
   <v>       0.25000000       0.00000000       0.75000000 </v>
   <v>       0.75000000       0.00000000       0.75000000 </v>
   <v>       0.25000000       0.50000000       0.75000000 </v>
   <v>       0.75000000       0.50000000       0.75000000 </v>
   <v>       0.25000000       0.25000000       0.00000000 </v>
   <v>       0.75000000       0.25000000       0.00000000 </v>
   <v>       0.25000000       0.75000000       0.00000000 </v>
   <v>       0.75000000       0.75000000       0.00000000 </v>
   <v>       0.25000000       0.25000000       0.50000000 </v>
   <v>       0.75000000       0.25000000       0.50000000 </v>
   <v>       0.25000000       0.75000000       0.50000000 </v>
   <v>       0.75000000       0.75000000       0.50000000 </v>
   <v>       0.25000000       0.00000000       0.00000000 </v>
   <v>       0.75000000       0.00000000       0.00000000 </v>
   <v>       0.25000000       0.50000000       0.00000000 </v>
   <v>       0.75000000       0.50000000       0.00000000 </v>
   <v>       0.25000000       0.00000000       0.50000000 </v>
   <v>       0.75000000       0.00000000       0.50000000 </v>
   <v>       0.25000000       0.50000000       0.50000000 </v>
   <v>       0.75000000       0.50000000       0.50000000 </v>
   <v>       0.25000000       0.25000000       0.25000000 </v>
   <v>       0.75000000       0.25000000       0.25000000 </v>
   <v>       0.25000000       0.75000000       0.25000000 </v>
   <v>       0.75000000       0.75000000       0.25000000 </v>
   <v>       0.25000000       0.25000000       0.75000000 </v>
   <v>       0.75000000       0.25000000       0.75000000 </v>
   <v>       0.25000000       0.75000000       0.75000000 </v>
   <v>       0.75000000       0.75000000       0.75000000 </v>
   <v>       0.00000000       0.00000000       0.25000000 </v>
   <v>       0.50000000       0.00000000       0.25000000 </v>
   <v>       0.00000000       0.50000000       0.25000000 </v>
   <v>       0.50000000       0.50000000       0.25000000 </v>
   <v>       0.00000000       0.00000000       0.75000000 </v>
   <v>       0.50000000       0.00000000       0.75000000 </v>
   <v>       0.00000000       0.50000000       0.75000000 </v>
   <v>       0.50000000       0.50000000       0.75000000 </v>
   <v>       0.00000000       0.25000000       0.00000000 </v>
   <v>       0.50000000       0.25000000       0.00000000 </v>
   <v>       0.00000000       0.75000000       0.00000000 </v>
   <v>       0.50000000       0.75000000       0.00000000 </v>
   <v>       0.00000000       0.25000000       0.50000000 </v>
   <v>       0.50000000       0.25000000       0.50000000 </v>
   <v>       0.00000000       0.75000000       0.50000000 </v>
   <v>       0.50000000       0.75000000       0.50000000 </v>
  </varray>
 </structure>
</modeling>
