   64   64    1    1
  0.1720993E+02  0.1032729E-08  0.1032729E-08  0.1032729E-08  0.5000000E-15
  1.000000000000000E-004
  CAR 
 unknown system                          
    448      6    268
 
  0.0000000E+00  0.0000000E+00  0.0000000E+00  0.1250000E+00
    1      -37.534281
    2      -37.534197
    3      -37.533916
    4      -37.533916
    5      -37.533256
    6      -37.533256
    7      -37.533115
    8      -37.531862
    9      -37.531839
   10      -37.531753
   11      -37.531753
   12      -37.531710
   13      -37.531611
   14      -37.531598
   15      -37.531598
   16      -37.531325
   17      -37.531325
   18      -37.531288
   19      -37.531267
   20      -37.531267
   21      -37.531114
   22      -37.530876
   23      -37.530784
   24      -37.530662
   25      -37.530662
   26      -37.530567
   27      -37.530567
   28      -37.530558
   29      -37.530497
   30      -37.530439
   31      -37.530439
   32      -37.529674
   33      -37.529531
   34      -37.529469
   35      -37.529469
   36      -37.529459
   37      -37.529390
   38      -37.529356
   39      -37.529292
   40      -37.529292
   41      -37.529127
   42      -37.529127
   43      -37.529089
   44      -37.528881
   45      -37.528873
   46      -37.528870
   47      -37.528869
   48      -37.528868
   49      -37.528865
   50      -37.528840
   51      -37.528797
   52      -37.528797
   53      -37.528754
   54      -37.528691
   55      -37.528677
   56      -37.528656
   57      -37.528656
   58      -37.528626
   59      -37.528212
   60      -37.528212
   61      -37.527757
   62      -37.527751
   63      -37.527745
   64      -37.527503
   65      -37.527503
   66      -37.527424
   67      -37.527373
   68      -37.527304
   69      -37.527304
   70      -37.527212
   71      -37.527211
   72      -37.527123
   73      -37.527015
   74      -37.526857
   75      -37.526857
   76      -37.526801
   77      -37.526739
   78      -37.526739
   79      -37.526720
   80      -37.526720
   81      -37.526671
   82      -37.526620
   83      -37.526620
   84      -37.526429
   85      -37.526409
   86      -37.526396
   87      -37.526396
   88      -37.526202
   89      -37.526062
   90      -37.525906
   91      -37.525906
   92      -37.525371
   93      -37.525302
   94      -37.525169
   95      -37.525047
   96      -37.525047
   97       -9.142973
   98       -8.366816
   99       -8.364400
  100       -8.364400
  101       -8.364396
  102       -8.364391
  103       -8.362075
  104       -7.835905
  105       -7.831332
  106       -7.831332
  107       -7.831240
  108       -7.831229
  109       -7.831229
  110       -7.831227
  111       -7.831224
  112       -7.831212
  113       -7.831120
  114       -7.831120
  115       -7.826723
  116       -7.745256
  117       -7.745256
  118       -7.745251
  119       -7.745154
  120       -7.359327
  121       -7.359274
  122       -7.359268
  123       -7.308939
  124       -7.306716
  125       -7.306716
  126       -7.306716
  127       -7.306707
  128       -7.304306
  129       -1.342561
  130       -1.342561
  131       -1.342557
  132       -1.342548
  133       -0.695911
  134       -0.695904
  135       -0.695904
  136       -0.158879
  137       -0.158879
  138       -0.158268
  139       -0.157746
  140       -0.157578
  141       -0.157518
  142       -0.157518
  143       -0.157515
  144       -0.157284
  145       -0.156766
  146       -0.156181
  147       -0.156181
  148        0.296891
  149        0.296891
  150        0.298147
  151        0.298147
  152        0.298559
  153        0.298561
  154        0.298566
  155        0.298587
  156        0.298977
  157        0.298977
  158        0.300237
  159        0.300237
  160        1.035980
  161        1.036766
  162        1.036796
  163        1.036796
  164        1.036820
  165        1.037654
  166        1.215944
  167        1.216345
  168        1.216558
  169        1.216558
  170        1.216969
  171        1.217582
  172        1.225362
  173        1.225362
  174        1.225999
  175        1.226284
  176        1.226299
  177        1.226321
  178        1.226587
  179        1.226587
  180        1.226607
  181        1.227378
  182        1.227392
  183        1.227392
  184        1.920293
  185        1.920296
  186        1.920296
  187        1.920296
  188        1.920298
  189        1.920298
  190        2.657700
  191        2.657700
  192        2.658449
  193        2.658449
  194        2.658792
  195        2.658908
  196        2.658908
  197        2.658910
  198        2.659370
  199        2.659370
  200        2.660102
  201        2.660102
  202        3.006053
  203        3.006053
  204        3.006687
  205        3.007355
  206        3.007367
  207        3.007368
  208        3.007368
  209        3.007372
  210        3.007467
  211        3.008056
  212        3.008602
  213        3.008602
  214        3.049257
  215        3.049257
  216        3.049257
  217        3.049258
  218        3.049272
  219        3.049309
  220        3.049363
  221        3.049363
  222        3.677247
  223        3.677247
  224        3.677259
  225        6.432623
  226        6.432627
  227        6.432636
  228        7.453063
  229        7.846895
  230        7.846895
  231        7.846906
  232        8.111044
  233        8.111044
  234        8.111049
  235        8.111049
  236        8.703069
  237        8.703592
  238        8.703607
  239        8.703607
  240        8.703615
  241        8.704133
  242        8.979911
  243        8.980571
  244        8.980584
  245        8.980584
  246        8.980592
  247        8.981260
  248        9.106030
  249        9.107312
  250        9.107312
  251        9.107356
  252        9.107366
  253        9.108696
  254        9.286389
  255        9.286952
  256        9.286952
  257        9.287477
  258        9.287567
  259        9.287575
  260        9.287590
  261        9.287590
  262        9.287661
  263        9.288208
  264        9.288208
  265        9.288766
  266       10.532020
  267       10.532026
  268       10.532034
 
  0.5000000E+00  0.0000000E+00  0.0000000E+00  0.1250000E+00
    1      -37.533913
    2      -37.533774
    3      -37.533209
    4      -37.533209
    5      -37.533113
    6      -37.533113
    7      -37.532670
    8      -37.532529
    9      -37.532529
   10      -37.532056
   11      -37.532055
   12      -37.531933
   13      -37.531819
   14      -37.531819
   15      -37.531722
   16      -37.531722
   17      -37.531672
   18      -37.531557
   19      -37.531542
   20      -37.531542
   21      -37.531539
   22      -37.531294
   23      -37.530991
   24      -37.530991
   25      -37.530983
   26      -37.530778
   27      -37.530458
   28      -37.530397
   29      -37.530397
   30      -37.530308
   31      -37.530108
   32      -37.530079
   33      -37.530079
   34      -37.529955
   35      -37.529753
   36      -37.529753
   37      -37.529742
   38      -37.529723
   39      -37.529723
   40      -37.529722
   41      -37.529683
   42      -37.529035
   43      -37.529035
   44      -37.528739
   45      -37.528732
   46      -37.528673
   47      -37.528673
   48      -37.528447
   49      -37.528447
   50      -37.528421
   51      -37.528370
   52      -37.528195
   53      -37.528152
   54      -37.528054
   55      -37.528054
   56      -37.527983
   57      -37.527983
   58      -37.527955
   59      -37.527955
   60      -37.527818
   61      -37.527810
   62      -37.527758
   63      -37.527735
   64      -37.527678
   65      -37.527533
   66      -37.527526
   67      -37.527526
   68      -37.527477
   69      -37.527440
   70      -37.527346
   71      -37.527194
   72      -37.527014
   73      -37.527014
   74      -37.527011
   75      -37.526887
   76      -37.526887
   77      -37.526749
   78      -37.526749
   79      -37.526743
   80      -37.526741
   81      -37.526741
   82      -37.526674
   83      -37.526562
   84      -37.526496
   85      -37.526496
   86      -37.526471
   87      -37.526471
   88      -37.526278
   89      -37.526023
   90      -37.525909
   91      -37.525909
   92      -37.525680
   93      -37.525337
   94      -37.525149
   95      -37.525141
   96      -37.525141
   97       -8.931954
   98       -8.929690
   99       -8.213420
  100       -8.210302
  101       -8.210302
  102       -8.209909
  103       -8.209634
  104       -8.209257
  105       -8.209257
  106       -8.206246
  107       -7.792413
  108       -7.789924
  109       -7.789016
  110       -7.789016
  111       -7.788961
  112       -7.788961
  113       -7.788062
  114       -7.785667
  115       -7.689428
  116       -7.687572
  117       -7.459410
  118       -7.456440
  119       -7.456440
  120       -7.456185
  121       -7.455833
  122       -7.455596
  123       -7.455596
  124       -7.452607
  125       -7.335361
  126       -7.333251
  127       -7.333223
  128       -7.330986
  129       -0.900396
  130       -0.900396
  131       -0.900227
  132       -0.899244
  133       -0.898707
  134       -0.897743
  135       -0.897580
  136       -0.897580
  137       -0.438668
  138       -0.438668
  139       -0.436473
  140       -0.436473
  141       -0.205925
  142       -0.203374
  143       -0.182687
  144       -0.180340
  145       -0.179981
  146       -0.179981
  147       -0.179552
  148       -0.179552
  149       -0.179183
  150       -0.176560
  151        0.497227
  152        0.497227
  153        0.498084
  154        0.498208
  155        0.498216
  156        0.498346
  157        0.499083
  158        0.499083
  159        0.540164
  160        0.540164
  161        0.540843
  162        0.541315
  163        0.542060
  164        0.542530
  165        0.543321
  166        0.543321
  167        1.316575
  168        1.316575
  169        1.317893
  170        1.317893
  171        1.530046
  172        1.532391
  173        1.532719
  174        1.535042
  175        2.116880
  176        2.116880
  177        2.119033
  178        2.119033
  179        2.142557
  180        2.142557
  181        2.143281
  182        2.143427
  183        2.144067
  184        2.144213
  185        2.144597
  186        2.144597
  187        2.151873
  188        2.152386
  189        2.152386
  190        2.152794
  191        2.152880
  192        2.153696
  193        2.153698
  194        2.153698
  195        2.244583
  196        2.247249
  197        2.247474
  198        2.247474
  199        2.247894
  200        2.247894
  201        2.248092
  202        2.250829
  203        2.636703
  204        2.638769
  205        2.957769
  206        2.960702
  207        2.961329
  208        2.961329
  209        2.961438
  210        2.961438
  211        2.962073
  212        2.965094
  213        3.026135
  214        3.026135
  215        3.028106
  216        3.028107
  217        3.028132
  218        3.028162
  219        3.030118
  220        3.030118
  221        3.333124
  222        3.333124
  223        3.334794
  224        3.334794
  225        7.079029
  226        7.080336
  227        7.476989
  228        7.477742
  229        7.478281
  230        7.479021
  231        8.167096
  232        8.169479
  233        8.613565
  234        8.614402
  235        8.913800
  236        8.914128
  237        8.914128
  238        8.914146
  239        8.914250
  240        8.914250
  241        8.914286
  242        8.914656
  243        8.934170
  244        8.934198
  245        8.934635
  246        8.934635
  247        8.936125
  248        8.936125
  249        8.936631
  250        8.936646
  251        8.995033
  252        8.995033
  253        8.997728
  254        8.997728
  255        9.507608
  256        9.508054
  257        9.508059
  258        9.508489
  259        9.508799
  260        9.509226
  261        9.509229
  262        9.509668
  263       10.024453
  264       10.025966
  265       10.028169
  266       10.033010
  267       10.039359
  268       10.061846
 
  0.0000000E+00  0.5000000E+00  0.0000000E+00  0.2500000E+00
    1      -37.533607
    2      -37.533463
    3      -37.533190
    4      -37.533185
    5      -37.533115
    6      -37.533070
    7      -37.533041
    8      -37.532769
    9      -37.532671
   10      -37.532578
   11      -37.532572
   12      -37.532343
   13      -37.532273
   14      -37.532193
   15      -37.531588
   16      -37.531401
   17      -37.531393
   18      -37.531332
   19      -37.531265
   20      -37.531167
   21      -37.530966
   22      -37.530833
   23      -37.530663
   24      -37.530577
   25      -37.530546
   26      -37.530532
   27      -37.530480
   28      -37.530458
   29      -37.530288
   30      -37.530250
   31      -37.530234
   32      -37.530159
   33      -37.530150
   34      -37.530148
   35      -37.530126
   36      -37.530050
   37      -37.529998
   38      -37.529984
   39      -37.529720
   40      -37.529527
   41      -37.529427
   42      -37.529377
   43      -37.529166
   44      -37.529009
   45      -37.528815
   46      -37.528795
   47      -37.528744
   48      -37.528660
   49      -37.528542
   50      -37.528519
   51      -37.528240
   52      -37.528239
   53      -37.528204
   54      -37.528126
   55      -37.527982
   56      -37.527959
   57      -37.527957
   58      -37.527760
   59      -37.527672
   60      -37.527669
   61      -37.527659
   62      -37.527588
   63      -37.527564
   64      -37.527553
   65      -37.527543
   66      -37.527510
   67      -37.527472
   68      -37.527433
   69      -37.527406
   70      -37.527368
   71      -37.527356
   72      -37.527342
   73      -37.527337
   74      -37.527197
   75      -37.527051
   76      -37.527022
   77      -37.526886
   78      -37.526814
   79      -37.526750
   80      -37.526745
   81      -37.526730
   82      -37.526699
   83      -37.526636
   84      -37.526474
   85      -37.526245
   86      -37.526203
   87      -37.526182
   88      -37.526029
   89      -37.525960
   90      -37.525923
   91      -37.525698
   92      -37.525489
   93      -37.525453
   94      -37.525336
   95      -37.525288
   96      -37.525267
   97       -8.930839
   98       -8.930809
   99       -8.213361
  100       -8.209941
  101       -8.209783
  102       -8.209779
  103       -8.209779
  104       -8.209774
  105       -8.209600
  106       -8.206309
  107       -7.789376
  108       -7.789053
  109       -7.788995
  110       -7.788992
  111       -7.788991
  112       -7.788968
  113       -7.788923
  114       -7.788793
  115       -7.688523
  116       -7.688433
  117       -7.459487
  118       -7.456188
  119       -7.456020
  120       -7.456017
  121       -7.456014
  122       -7.456013
  123       -7.455828
  124       -7.452531
  125       -7.333238
  126       -7.333238
  127       -7.333230
  128       -7.333094
  129       -0.899265
  130       -0.899056
  131       -0.899051
  132       -0.899027
  133       -0.898935
  134       -0.898935
  135       -0.898923
  136       -0.898707
  137       -0.437574
  138       -0.437568
  139       -0.437566
  140       -0.437566
  141       -0.204684
  142       -0.204495
  143       -0.181907
  144       -0.179915
  145       -0.179770
  146       -0.179761
  147       -0.179759
  148       -0.179754
  149       -0.179610
  150       -0.177450
  151        0.497196
  152        0.497632
  153        0.497838
  154        0.498064
  155        0.498212
  156        0.498214
  157        0.498783
  158        0.499225
  159        0.540503
  160        0.541639
  161        0.541689
  162        0.541696
  163        0.541739
  164        0.541769
  165        0.542053
  166        0.542925
  167        1.317221
  168        1.317228
  169        1.317235
  170        1.317236
  171        1.532538
  172        1.532560
  173        1.532561
  174        1.532564
  175        2.117777
  176        2.117925
  177        2.118002
  178        2.118006
  179        2.142242
  180        2.142692
  181        2.143414
  182        2.143618
  183        2.143696
  184        2.143748
  185        2.143875
  186        2.144646
  187        2.151991
  188        2.152055
  189        2.152844
  190        2.152879
  191        2.153368
  192        2.153563
  193        2.153639
  194        2.154501
  195        2.247369
  196        2.247455
  197        2.247591
  198        2.247637
  199        2.247730
  200        2.247757
  201        2.247993
  202        2.248020
  203        2.637733
  204        2.637733
  205        2.959301
  206        2.961205
  207        2.961362
  208        2.961390
  209        2.961394
  210        2.961396
  211        2.961587
  212        2.963498
  213        3.027865
  214        3.028117
  215        3.028118
  216        3.028119
  217        3.028125
  218        3.028127
  219        3.028138
  220        3.028371
  221        3.333952
  222        3.333953
  223        3.333971
  224        3.334019
  225        7.079680
  226        7.079684
  227        7.478006
  228        7.478010
  229        7.478012
  230        7.478014
  231        8.168262
  232        8.168292
  233        8.613983
  234        8.613994
  235        8.913602
  236        8.913645
  237        8.914186
  238        8.914209
  239        8.914215
  240        8.914228
  241        8.914763
  242        8.914780
  243        8.935156
  244        8.935163
  245        8.935199
  246        8.935239
  247        8.935564
  248        8.935565
  249        8.935632
  250        8.935685
  251        8.996335
  252        8.996337
  253        8.996376
  254        8.996450
  255        9.507675
  256        9.508530
  257        9.508639
  258        9.508641
  259        9.508645
  260        9.508650
  261        9.508769
  262        9.509592
  263       10.024901
  264       10.025582
  265       10.026839
  266       10.028252
  267       10.036748
  268       10.047831
 
  0.5000000E+00  0.5000000E+00  0.0000000E+00  0.2500000E+00
    1      -37.533531
    2      -37.533397
    3      -37.533111
    4      -37.533012
    5      -37.532986
    6      -37.532852
    7      -37.532824
    8      -37.532548
    9      -37.532495
   10      -37.532456
   11      -37.532361
   12      -37.532225
   13      -37.532091
   14      -37.532068
   15      -37.531749
   16      -37.531719
   17      -37.531713
   18      -37.531673
   19      -37.531466
   20      -37.531445
   21      -37.531373
   22      -37.531323
   23      -37.531306
   24      -37.531271
   25      -37.531189
   26      -37.530913
   27      -37.530863
   28      -37.530780
   29      -37.530441
   30      -37.530341
   31      -37.530170
   32      -37.529988
   33      -37.529922
   34      -37.529624
   35      -37.529356
   36      -37.529317
   37      -37.529271
   38      -37.529250
   39      -37.529247
   40      -37.529079
   41      -37.529020
   42      -37.529011
   43      -37.528828
   44      -37.528630
   45      -37.528628
   46      -37.528626
   47      -37.528581
   48      -37.528488
   49      -37.528400
   50      -37.528365
   51      -37.528303
   52      -37.528290
   53      -37.528288
   54      -37.528239
   55      -37.528153
   56      -37.528129
   57      -37.528057
   58      -37.528034
   59      -37.527950
   60      -37.527915
   61      -37.527886
   62      -37.527835
   63      -37.527735
   64      -37.527692
   65      -37.527688
   66      -37.527516
   67      -37.527483
   68      -37.527326
   69      -37.527278
   70      -37.527250
   71      -37.527243
   72      -37.527230
   73      -37.527144
   74      -37.527126
   75      -37.527069
   76      -37.527025
   77      -37.526976
   78      -37.526970
   79      -37.526961
   80      -37.526839
   81      -37.526735
   82      -37.526724
   83      -37.526606
   84      -37.526343
   85      -37.526244
   86      -37.526172
   87      -37.526133
   88      -37.526044
   89      -37.525883
   90      -37.525770
   91      -37.525554
   92      -37.525445
   93      -37.525273
   94      -37.525248
   95      -37.525210
   96      -37.525051
   97       -8.733809
   98       -8.732091
   99       -8.731521
  100       -8.729857
  101       -8.085098
  102       -8.082254
  103       -8.082146
  104       -8.081763
  105       -8.081593
  106       -8.081236
  107       -8.081119
  108       -8.078383
  109       -7.614589
  110       -7.611706
  111       -7.611592
  112       -7.611255
  113       -7.611151
  114       -7.610829
  115       -7.610727
  116       -7.608158
  117       -7.542757
  118       -7.540141
  119       -7.540062
  120       -7.539704
  121       -7.539596
  122       -7.539256
  123       -7.539190
  124       -7.536280
  125       -7.357933
  126       -7.356325
  127       -7.355834
  128       -7.354114
  129       -0.803359
  130       -0.803173
  131       -0.802660
  132       -0.801803
  133       -0.801670
  134       -0.800843
  135       -0.800325
  136       -0.800148
  137       -0.231536
  138       -0.230801
  139       -0.229187
  140       -0.228903
  141       -0.228679
  142       -0.228443
  143       -0.226970
  144       -0.226593
  145       -0.215410
  146       -0.214520
  147       -0.214188
  148       -0.213927
  149       -0.213925
  150       -0.213144
  151       -0.213067
  152       -0.212665
  153       -0.184392
  154       -0.182953
  155       -0.182301
  156       -0.180660
  157        0.354041
  158        0.354497
  159        0.355148
  160        0.355607
  161        1.430754
  162        1.431521
  163        1.432218
  164        1.432339
  165        1.432569
  166        1.432705
  167        1.433388
  168        1.434122
  169        1.533869
  170        1.535971
  171        1.536327
  172        1.536506
  173        1.536642
  174        1.536829
  175        1.537159
  176        1.539241
  177        1.667737
  178        1.667778
  179        1.668739
  180        1.668787
  181        2.009110
  182        2.009784
  183        2.010943
  184        2.011069
  185        2.011244
  186        2.011370
  187        2.012526
  188        2.013170
  189        2.248341
  190        2.248916
  191        2.250467
  192        2.251053
  193        2.463690
  194        2.464465
  195        2.464987
  196        2.465321
  197        2.465549
  198        2.465890
  199        2.466393
  200        2.467138
  201        2.707882
  202        2.708652
  203        2.708697
  204        2.709158
  205        2.709276
  206        2.709734
  207        2.709778
  208        2.710536
  209        2.839672
  210        2.840863
  211        2.842301
  212        2.842361
  213        2.842386
  214        2.842448
  215        2.843910
  216        2.845150
  217        2.921704
  218        2.922741
  219        2.923253
  220        2.924331
  221        3.558831
  222        3.559368
  223        3.561030
  224        3.561585
  225        7.527258
  226        7.527350
  227        7.528684
  228        7.528780
  229        8.026203
  230        8.026795
  231        8.026842
  232        8.026992
  233        8.027578
  234        8.027723
  235        8.027777
  236        8.028357
  237        8.887394
  238        8.888540
  239        8.889507
  240        8.889527
  241        8.889621
  242        8.889642
  243        8.890622
  244        8.891747
  245        9.108400
  246        9.109064
  247        9.109297
  248        9.109945
  249        9.235816
  250        9.235828
  251        9.235935
  252        9.236053
  253        9.236631
  254        9.236719
  255        9.236737
  256        9.236876
  257        9.267619
  258        9.268069
  259        9.269576
  260        9.269847
  261        9.270361
  262        9.270637
  263        9.272149
  264        9.272629
  265        9.713274
  266        9.714080
  267        9.714869
  268        9.715094
 
  0.0000000E+00  0.5000000E+00  0.5000000E+00  0.1250000E+00
    1      -37.533470
    2      -37.533356
    3      -37.533355
    4      -37.533325
    5      -37.532799
    6      -37.532795
    7      -37.532795
    8      -37.532610
    9      -37.532532
   10      -37.532066
   11      -37.532066
   12      -37.531917
   13      -37.531917
   14      -37.531915
   15      -37.531881
   16      -37.531832
   17      -37.531815
   18      -37.531790
   19      -37.531790
   20      -37.531711
   21      -37.531347
   22      -37.531347
   23      -37.531328
   24      -37.531211
   25      -37.531175
   26      -37.531064
   27      -37.531064
   28      -37.530755
   29      -37.530139
   30      -37.530139
   31      -37.530023
   32      -37.529984
   33      -37.529869
   34      -37.529736
   35      -37.529599
   36      -37.529391
   37      -37.529391
   38      -37.529197
   39      -37.529197
   40      -37.528876
   41      -37.528820
   42      -37.528817
   43      -37.528813
   44      -37.528813
   45      -37.528795
   46      -37.528795
   47      -37.528791
   48      -37.528791
   49      -37.528702
   50      -37.528702
   51      -37.528296
   52      -37.528289
   53      -37.528253
   54      -37.528224
   55      -37.528108
   56      -37.528108
   57      -37.528058
   58      -37.528058
   59      -37.528058
   60      -37.528055
   61      -37.527656
   62      -37.527629
   63      -37.527629
   64      -37.527619
   65      -37.527447
   66      -37.527357
   67      -37.527275
   68      -37.527262
   69      -37.527154
   70      -37.527154
   71      -37.527092
   72      -37.527092
   73      -37.526934
   74      -37.526909
   75      -37.526909
   76      -37.526906
   77      -37.526905
   78      -37.526888
   79      -37.526888
   80      -37.526771
   81      -37.526771
   82      -37.526675
   83      -37.526650
   84      -37.526560
   85      -37.526559
   86      -37.526411
   87      -37.526393
   88      -37.526377
   89      -37.526305
   90      -37.525793
   91      -37.525793
   92      -37.525579
   93      -37.525113
   94      -37.525018
   95      -37.525018
   96      -37.524982
   97       -8.731877
   98       -8.731806
   99       -8.731806
  100       -8.731806
  101       -8.082292
  102       -8.081717
  103       -8.081717
  104       -8.081691
  105       -8.081677
  106       -8.081652
  107       -8.081652
  108       -8.081177
  109       -7.611893
  110       -7.611217
  111       -7.611211
  112       -7.611211
  113       -7.611209
  114       -7.611208
  115       -7.611208
  116       -7.611206
  117       -7.539684
  118       -7.539684
  119       -7.539666
  120       -7.539655
  121       -7.539643
  122       -7.539632
  123       -7.539632
  124       -7.539043
  125       -7.356079
  126       -7.356079
  127       -7.356079
  128       -7.355957
  129       -0.802150
  130       -0.802150
  131       -0.801771
  132       -0.801738
  133       -0.801737
  134       -0.801735
  135       -0.801355
  136       -0.801355
  137       -0.229148
  138       -0.229148
  139       -0.228880
  140       -0.228793
  141       -0.228786
  142       -0.228786
  143       -0.228786
  144       -0.228785
  145       -0.214799
  146       -0.214045
  147       -0.214045
  148       -0.213987
  149       -0.213862
  150       -0.213810
  151       -0.213468
  152       -0.213468
  153       -0.182624
  154       -0.182622
  155       -0.182622
  156       -0.181795
  157        0.354824
  158        0.354824
  159        0.354824
  160        0.354830
  161        1.432012
  162        1.432012
  163        1.432460
  164        1.432461
  165        1.432464
  166        1.432465
  167        1.432879
  168        1.432879
  169        1.536482
  170        1.536564
  171        1.536570
  172        1.536570
  173        1.536572
  174        1.536572
  175        1.536573
  176        1.536574
  177        1.668261
  178        1.668262
  179        1.668262
  180        1.668263
  181        2.011147
  182        2.011147
  183        2.011157
  184        2.011159
  185        2.011159
  186        2.011161
  187        2.011161
  188        2.011161
  189        2.249679
  190        2.249679
  191        2.249693
  192        2.249694
  193        2.465341
  194        2.465341
  195        2.465419
  196        2.465429
  197        2.465432
  198        2.465438
  199        2.465530
  200        2.465530
  201        2.708950
  202        2.709142
  203        2.709176
  204        2.709176
  205        2.709259
  206        2.709259
  207        2.709291
  208        2.709371
  209        2.842115
  210        2.842115
  211        2.842323
  212        2.842357
  213        2.842397
  214        2.842439
  215        2.842643
  216        2.842643
  217        2.922997
  218        2.923001
  219        2.923001
  220        2.923188
  221        3.560197
  222        3.560202
  223        3.560205
  224        3.560205
  225        7.528016
  226        7.528018
  227        7.528023
  228        7.528023
  229        8.027263
  230        8.027282
  231        8.027282
  232        8.027284
  233        8.027286
  234        8.027289
  235        8.027289
  236        8.027296
  237        8.888764
  238        8.888906
  239        8.889377
  240        8.889377
  241        8.889774
  242        8.889774
  243        8.890201
  244        8.890386
  245        9.109173
  246        9.109173
  247        9.109181
  248        9.109195
  249        9.235749
  250        9.235767
  251        9.236250
  252        9.236329
  253        9.236339
  254        9.236347
  255        9.236733
  256        9.236745
  257        9.270099
  258        9.270100
  259        9.270102
  260        9.270104
  261        9.270114
  262        9.270143
  263        9.270256
  264        9.270278
  265        9.713678
  266        9.713993
  267        9.714114
  268        9.714349
 