       N       E                     dE             d eps       ncg     rms          rms(c)
DAV:   1     0.432089166556E+04    0.43209E+04   -0.26671E+05  3888   0.166E+03
DAV:   2     0.103718023770E+03   -0.42172E+04   -0.40671E+04  3824   0.433E+02
DAV:   3    -0.281804358520E+03   -0.38552E+03   -0.38169E+03  3880   0.120E+02
DAV:   4    -0.300652609945E+03   -0.18848E+02   -0.18777E+02  3648   0.222E+01
DAV:   5    -0.301529718813E+03   -0.87711E+00   -0.87641E+00  4016   0.483E+00    0.250E+01
DAV:   6    -0.291134440767E+03    0.10395E+02   -0.20865E+01  3608   0.697E+00    0.181E+01
DAV:   7    -0.289872830480E+03    0.12616E+01   -0.81226E+00  3768   0.406E+00    0.895E+00
DAV:   8    -0.289792847524E+03    0.79983E-01   -0.74471E-01  3520   0.175E+00    0.237E+00
DAV:   9    -0.289788115393E+03    0.47321E-02   -0.26359E-02  3680   0.351E-01    0.466E-01
DAV:  10    -0.289788567071E+03   -0.45168E-03   -0.57841E-03  3732   0.132E-01    0.222E-01
DAV:  11    -0.289788320444E+03    0.24663E-03   -0.97324E-04  3544   0.619E-02    0.219E-02
DAV:  12    -0.289788322769E+03   -0.23254E-05   -0.29989E-05  3744   0.111E-02    0.256E-02
DAV:  13    -0.289788326114E+03   -0.33452E-05   -0.50287E-06  3608   0.509E-03    0.456E-03
DAV:  14    -0.289788325679E+03    0.43564E-06   -0.19759E-06  3580   0.291E-03    0.197E-03
DAV:  15    -0.289788325654E+03    0.24418E-07   -0.68457E-08  3096   0.526E-04    0.179E-03
DAV:  16    -0.289788325649E+03    0.53260E-08   -0.49759E-08  2932   0.384E-04
   1 F= -.28978833E+03 E0= -.28978833E+03  d E =-.158044E-84
