# epsilon and Z* of atoms 1 5 9 11
   4.86511532    0.00000000    0.16526427    0.00000000    4.69086901    0.00000000    0.16526562    0.00000000    4.69491700 
  -2.46791910   -0.09256110    0.53532438   -0.00716819   -2.14749651    0.52512389    0.56393662    0.50030442   -2.58558254 
  -2.59168176    0.98338635   -0.77346021    1.10403180   -2.59573606    0.29285412   -0.85740514    0.26236247   -2.14921352 
   4.68496065    0.00000000    0.11447129    0.00000000    3.80716820    0.00000000    0.15273937    0.00000000    4.00739735 
   5.43424107    0.00000000    0.36180037    0.00000000    5.67929693    0.00000000    0.43419765    0.00000000    5.46219477 
