natom:  144
displacements:
- atom:    1
  displacement:
    [   0.0099970288539624,  0.0000000000000000, -0.0002437500626524 ]
- atom:    1
  displacement:
    [  -0.0099970288539624,  0.0000000000000000,  0.0002437500626524 ]
- atom:    1
  displacement:
    [   0.0000000000000000,  0.0100000000000000,  0.0000000000000000 ]
- atom:    1
  displacement:
    [   0.0000000000000000, -0.0100000000000000,  0.0000000000000000 ]
- atom:    1
  displacement:
    [  -0.0008360032517718,  0.0000000000000000,  0.0099649936559451 ]
- atom:    1
  displacement:
    [   0.0008360032517718,  0.0000000000000000, -0.0099649936559451 ]
- atom:   49
  displacement:
    [   0.0099970288539624,  0.0000000000000000, -0.0002437500626524 ]
- atom:   49
  displacement:
    [  -0.0099970288539624,  0.0000000000000000,  0.0002437500626524 ]
- atom:   49
  displacement:
    [   0.0000000000000000,  0.0100000000000000,  0.0000000000000000 ]
- atom:   49
  displacement:
    [   0.0000000000000000, -0.0100000000000000,  0.0000000000000000 ]
- atom:   49
  displacement:
    [  -0.0008360032517718,  0.0000000000000000,  0.0099649936559451 ]
- atom:   49
  displacement:
    [   0.0008360032517718,  0.0000000000000000, -0.0099649936559451 ]
- atom:   97
  displacement:
    [   0.0099970288539624,  0.0000000000000000, -0.0002437500626524 ]
- atom:   97
  displacement:
    [   0.0000000000000000,  0.0100000000000000,  0.0000000000000000 ]
- atom:   97
  displacement:
    [   0.0000000000000000, -0.0100000000000000,  0.0000000000000000 ]
- atom:   97
  displacement:
    [  -0.0008360032517718,  0.0000000000000000,  0.0099649936559451 ]
- atom:  121
  displacement:
    [   0.0099970288539624,  0.0000000000000000, -0.0002437500626524 ]
- atom:  121
  displacement:
    [   0.0000000000000000,  0.0100000000000000,  0.0000000000000000 ]
- atom:  121
  displacement:
    [   0.0000000000000000, -0.0100000000000000,  0.0000000000000000 ]
- atom:  121
  displacement:
    [  -0.0008360032517718,  0.0000000000000000,  0.0099649936559451 ]
lattice:
- [    15.0780884099999994,     0.0000000000000000,    -0.3676377300000000 ] # a
- [     0.0000000000000000,    10.6607825999999992,     0.0000000000000000 ] # b
- [    -0.8692541000000000,     0.0000000000000000,    10.3613371999999995 ] # c
atoms:
- symbol: O  # 1
  position: [  0.2459836200000000,  0.2195935450000000,  0.0039152550000000 ]
  mass: 15.999400
- symbol: O  # 2
  position: [  0.5793169533333333,  0.2195935450000000,  0.0039152550000000 ]
  mass: 15.999400
- symbol: O  # 3
  position: [  0.9126502866666666,  0.2195935450000000,  0.0039152550000000 ]
  mass: 15.999400
- symbol: O  # 4
  position: [  0.2459836200000000,  0.7195935449999999,  0.0039152550000000 ]
  mass: 15.999400
- symbol: O  # 5
  position: [  0.5793169533333333,  0.7195935449999999,  0.0039152550000000 ]
  mass: 15.999400
- symbol: O  # 6
  position: [  0.9126502866666666,  0.7195935449999999,  0.0039152550000000 ]
  mass: 15.999400
- symbol: O  # 7
  position: [  0.2459836200000000,  0.2195935450000000,  0.5039152550000000 ]
  mass: 15.999400
- symbol: O  # 8
  position: [  0.5793169533333333,  0.2195935450000000,  0.5039152550000000 ]
  mass: 15.999400
- symbol: O  # 9
  position: [  0.9126502866666666,  0.2195935450000000,  0.5039152550000000 ]
  mass: 15.999400
- symbol: O  # 10
  position: [  0.2459836200000000,  0.7195935449999999,  0.5039152550000000 ]
  mass: 15.999400
- symbol: O  # 11
  position: [  0.5793169533333333,  0.7195935449999999,  0.5039152550000000 ]
  mass: 15.999400
- symbol: O  # 12
  position: [  0.9126502866666666,  0.7195935449999999,  0.5039152550000000 ]
  mass: 15.999400
- symbol: O  # 13
  position: [  0.0873497133333333,  0.2195935450000000,  0.2460847450000000 ]
  mass: 15.999400
- symbol: O  # 14
  position: [  0.4206830466666667,  0.2195935450000000,  0.2460847450000000 ]
  mass: 15.999400
- symbol: O  # 15
  position: [  0.7540163800000000,  0.2195935450000000,  0.2460847450000000 ]
  mass: 15.999400
- symbol: O  # 16
  position: [  0.0873497133333333,  0.7195935449999999,  0.2460847450000000 ]
  mass: 15.999400
- symbol: O  # 17
  position: [  0.4206830466666667,  0.7195935449999999,  0.2460847450000000 ]
  mass: 15.999400
- symbol: O  # 18
  position: [  0.7540163800000000,  0.7195935449999999,  0.2460847450000000 ]
  mass: 15.999400
- symbol: O  # 19
  position: [  0.0873497133333333,  0.2195935450000000,  0.7460847450000000 ]
  mass: 15.999400
- symbol: O  # 20
  position: [  0.4206830466666667,  0.2195935450000000,  0.7460847450000000 ]
  mass: 15.999400
- symbol: O  # 21
  position: [  0.7540163800000000,  0.2195935450000000,  0.7460847450000000 ]
  mass: 15.999400
- symbol: O  # 22
  position: [  0.0873497133333333,  0.7195935449999999,  0.7460847450000000 ]
  mass: 15.999400
- symbol: O  # 23
  position: [  0.4206830466666667,  0.7195935449999999,  0.7460847450000000 ]
  mass: 15.999400
- symbol: O  # 24
  position: [  0.7540163800000000,  0.7195935449999999,  0.7460847450000000 ]
  mass: 15.999400
- symbol: O  # 25
  position: [  0.0873497133333333,  0.2804064550000000,  0.4960847450000000 ]
  mass: 15.999400
- symbol: O  # 26
  position: [  0.4206830466666667,  0.2804064550000000,  0.4960847450000000 ]
  mass: 15.999400
- symbol: O  # 27
  position: [  0.7540163800000000,  0.2804064550000000,  0.4960847450000000 ]
  mass: 15.999400
- symbol: O  # 28
  position: [  0.0873497133333333,  0.7804064550000001,  0.4960847450000000 ]
  mass: 15.999400
- symbol: O  # 29
  position: [  0.4206830466666667,  0.7804064550000001,  0.4960847450000000 ]
  mass: 15.999400
- symbol: O  # 30
  position: [  0.7540163800000000,  0.7804064550000001,  0.4960847450000000 ]
  mass: 15.999400
- symbol: O  # 31
  position: [  0.0873497133333333,  0.2804064550000000,  0.9960847450000000 ]
  mass: 15.999400
- symbol: O  # 32
  position: [  0.4206830466666667,  0.2804064550000000,  0.9960847450000000 ]
  mass: 15.999400
- symbol: O  # 33
  position: [  0.7540163800000000,  0.2804064550000000,  0.9960847450000000 ]
  mass: 15.999400
- symbol: O  # 34
  position: [  0.0873497133333333,  0.7804064550000001,  0.9960847450000000 ]
  mass: 15.999400
- symbol: O  # 35
  position: [  0.4206830466666667,  0.7804064550000001,  0.9960847450000000 ]
  mass: 15.999400
- symbol: O  # 36
  position: [  0.7540163800000000,  0.7804064550000001,  0.9960847450000000 ]
  mass: 15.999400
- symbol: O  # 37
  position: [  0.2459836200000000,  0.2804064550000000,  0.2539152550000000 ]
  mass: 15.999400
- symbol: O  # 38
  position: [  0.5793169533333333,  0.2804064550000000,  0.2539152550000000 ]
  mass: 15.999400
- symbol: O  # 39
  position: [  0.9126502866666666,  0.2804064550000000,  0.2539152550000000 ]
  mass: 15.999400
- symbol: O  # 40
  position: [  0.2459836200000000,  0.7804064550000001,  0.2539152550000000 ]
  mass: 15.999400
- symbol: O  # 41
  position: [  0.5793169533333333,  0.7804064550000001,  0.2539152550000000 ]
  mass: 15.999400
- symbol: O  # 42
  position: [  0.9126502866666666,  0.7804064550000001,  0.2539152550000000 ]
  mass: 15.999400
- symbol: O  # 43
  position: [  0.2459836200000000,  0.2804064550000000,  0.7539152550000000 ]
  mass: 15.999400
- symbol: O  # 44
  position: [  0.5793169533333333,  0.2804064550000000,  0.7539152550000000 ]
  mass: 15.999400
- symbol: O  # 45
  position: [  0.9126502866666666,  0.2804064550000000,  0.7539152550000000 ]
  mass: 15.999400
- symbol: O  # 46
  position: [  0.2459836200000000,  0.7804064550000001,  0.7539152550000000 ]
  mass: 15.999400
- symbol: O  # 47
  position: [  0.5793169533333333,  0.7804064550000001,  0.7539152550000000 ]
  mass: 15.999400
- symbol: O  # 48
  position: [  0.9126502866666666,  0.7804064550000001,  0.7539152550000000 ]
  mass: 15.999400
- symbol: O  # 49
  position: [  0.0820762666666667,  0.4629293600000000,  0.2955385050000000 ]
  mass: 15.999400
- symbol: O  # 50
  position: [  0.4154096000000000,  0.4629293600000000,  0.2955385050000000 ]
  mass: 15.999400
- symbol: O  # 51
  position: [  0.7487429333333333,  0.4629293600000000,  0.2955385050000000 ]
  mass: 15.999400
- symbol: O  # 52
  position: [  0.0820762666666667,  0.9629293600000000,  0.2955385050000000 ]
  mass: 15.999400
- symbol: O  # 53
  position: [  0.4154096000000000,  0.9629293600000000,  0.2955385050000000 ]
  mass: 15.999400
- symbol: O  # 54
  position: [  0.7487429333333333,  0.9629293600000000,  0.2955385050000000 ]
  mass: 15.999400
- symbol: O  # 55
  position: [  0.0820762666666667,  0.4629293600000000,  0.7955385050000000 ]
  mass: 15.999400
- symbol: O  # 56
  position: [  0.4154096000000000,  0.4629293600000000,  0.7955385050000000 ]
  mass: 15.999400
- symbol: O  # 57
  position: [  0.7487429333333333,  0.4629293600000000,  0.7955385050000000 ]
  mass: 15.999400
- symbol: O  # 58
  position: [  0.0820762666666667,  0.9629293600000000,  0.7955385050000000 ]
  mass: 15.999400
- symbol: O  # 59
  position: [  0.4154096000000000,  0.9629293600000000,  0.7955385050000000 ]
  mass: 15.999400
- symbol: O  # 60
  position: [  0.7487429333333333,  0.9629293600000000,  0.7955385050000000 ]
  mass: 15.999400
- symbol: O  # 61
  position: [  0.2512570666666666,  0.4629293600000000,  0.4544614950000000 ]
  mass: 15.999400
- symbol: O  # 62
  position: [  0.5845904000000001,  0.4629293600000000,  0.4544614950000000 ]
  mass: 15.999400
- symbol: O  # 63
  position: [  0.9179237333333333,  0.4629293600000000,  0.4544614950000000 ]
  mass: 15.999400
- symbol: O  # 64
  position: [  0.2512570666666666,  0.9629293600000000,  0.4544614950000000 ]
  mass: 15.999400
- symbol: O  # 65
  position: [  0.5845904000000001,  0.9629293600000000,  0.4544614950000000 ]
  mass: 15.999400
- symbol: O  # 66
  position: [  0.9179237333333333,  0.9629293600000000,  0.4544614950000000 ]
  mass: 15.999400
- symbol: O  # 67
  position: [  0.2512570666666666,  0.4629293600000000,  0.9544614950000000 ]
  mass: 15.999400
- symbol: O  # 68
  position: [  0.5845904000000001,  0.4629293600000000,  0.9544614950000000 ]
  mass: 15.999400
- symbol: O  # 69
  position: [  0.9179237333333333,  0.4629293600000000,  0.9544614950000000 ]
  mass: 15.999400
- symbol: O  # 70
  position: [  0.2512570666666666,  0.9629293600000000,  0.9544614950000000 ]
  mass: 15.999400
- symbol: O  # 71
  position: [  0.5845904000000001,  0.9629293600000000,  0.9544614950000000 ]
  mass: 15.999400
- symbol: O  # 72
  position: [  0.9179237333333333,  0.9629293600000000,  0.9544614950000000 ]
  mass: 15.999400
- symbol: O  # 73
  position: [  0.2512570666666666,  0.0370706400000000,  0.2044614950000000 ]
  mass: 15.999400
- symbol: O  # 74
  position: [  0.5845904000000001,  0.0370706400000000,  0.2044614950000000 ]
  mass: 15.999400
- symbol: O  # 75
  position: [  0.9179237333333333,  0.0370706400000000,  0.2044614950000000 ]
  mass: 15.999400
- symbol: O  # 76
  position: [  0.2512570666666666,  0.5370706400000000,  0.2044614950000000 ]
  mass: 15.999400
- symbol: O  # 77
  position: [  0.5845904000000001,  0.5370706400000000,  0.2044614950000000 ]
  mass: 15.999400
- symbol: O  # 78
  position: [  0.9179237333333333,  0.5370706400000000,  0.2044614950000000 ]
  mass: 15.999400
- symbol: O  # 79
  position: [  0.2512570666666666,  0.0370706400000000,  0.7044614950000000 ]
  mass: 15.999400
- symbol: O  # 80
  position: [  0.5845904000000001,  0.0370706400000000,  0.7044614950000000 ]
  mass: 15.999400
- symbol: O  # 81
  position: [  0.9179237333333333,  0.0370706400000000,  0.7044614950000000 ]
  mass: 15.999400
- symbol: O  # 82
  position: [  0.2512570666666666,  0.5370706400000000,  0.7044614950000000 ]
  mass: 15.999400
- symbol: O  # 83
  position: [  0.5845904000000001,  0.5370706400000000,  0.7044614950000000 ]
  mass: 15.999400
- symbol: O  # 84
  position: [  0.9179237333333333,  0.5370706400000000,  0.7044614950000000 ]
  mass: 15.999400
- symbol: O  # 85
  position: [  0.0820762666666667,  0.0370706400000000,  0.0455385050000000 ]
  mass: 15.999400
- symbol: O  # 86
  position: [  0.4154096000000000,  0.0370706400000000,  0.0455385050000000 ]
  mass: 15.999400
- symbol: O  # 87
  position: [  0.7487429333333333,  0.0370706400000000,  0.0455385050000000 ]
  mass: 15.999400
- symbol: O  # 88
  position: [  0.0820762666666667,  0.5370706400000000,  0.0455385050000000 ]
  mass: 15.999400
- symbol: O  # 89
  position: [  0.4154096000000000,  0.5370706400000000,  0.0455385050000000 ]
  mass: 15.999400
- symbol: O  # 90
  position: [  0.7487429333333333,  0.5370706400000000,  0.0455385050000000 ]
  mass: 15.999400
- symbol: O  # 91
  position: [  0.0820762666666667,  0.0370706400000000,  0.5455385050000000 ]
  mass: 15.999400
- symbol: O  # 92
  position: [  0.4154096000000000,  0.0370706400000000,  0.5455385050000000 ]
  mass: 15.999400
- symbol: O  # 93
  position: [  0.7487429333333333,  0.0370706400000000,  0.5455385050000000 ]
  mass: 15.999400
- symbol: O  # 94
  position: [  0.0820762666666667,  0.5370706400000000,  0.5455385050000000 ]
  mass: 15.999400
- symbol: O  # 95
  position: [  0.4154096000000000,  0.5370706400000000,  0.5455385050000000 ]
  mass: 15.999400
- symbol: O  # 96
  position: [  0.7487429333333333,  0.5370706400000000,  0.5455385050000000 ]
  mass: 15.999400
- symbol: Lu # 97
  position: [  0.0000000000000000,  0.1169194250000000,  0.3750000000000000 ]
  mass: 174.967000
- symbol: Lu # 98
  position: [  0.3333333333333333,  0.1169194250000000,  0.3750000000000000 ]
  mass: 174.967000
- symbol: Lu # 99
  position: [  0.6666666666666666,  0.1169194250000000,  0.3750000000000000 ]
  mass: 174.967000
- symbol: Lu # 100
  position: [  0.0000000000000000,  0.6169194250000000,  0.3750000000000000 ]
  mass: 174.967000
- symbol: Lu # 101
  position: [  0.3333333333333333,  0.6169194250000000,  0.3750000000000000 ]
  mass: 174.967000
- symbol: Lu # 102
  position: [  0.6666666666666666,  0.6169194250000000,  0.3750000000000000 ]
  mass: 174.967000
- symbol: Lu # 103
  position: [  0.0000000000000000,  0.1169194250000000,  0.8750000000000000 ]
  mass: 174.967000
- symbol: Lu # 104
  position: [  0.3333333333333333,  0.1169194250000000,  0.8750000000000000 ]
  mass: 174.967000
- symbol: Lu # 105
  position: [  0.6666666666666666,  0.1169194250000000,  0.8750000000000000 ]
  mass: 174.967000
- symbol: Lu # 106
  position: [  0.0000000000000000,  0.6169194250000000,  0.8750000000000000 ]
  mass: 174.967000
- symbol: Lu # 107
  position: [  0.3333333333333333,  0.6169194250000000,  0.8750000000000000 ]
  mass: 174.967000
- symbol: Lu # 108
  position: [  0.6666666666666666,  0.6169194250000000,  0.8750000000000000 ]
  mass: 174.967000
- symbol: Lu # 109
  position: [  0.0000000000000000,  0.3830805750000000,  0.1250000000000000 ]
  mass: 174.967000
- symbol: Lu # 110
  position: [  0.3333333333333333,  0.3830805750000000,  0.1250000000000000 ]
  mass: 174.967000
- symbol: Lu # 111
  position: [  0.6666666666666666,  0.3830805750000000,  0.1250000000000000 ]
  mass: 174.967000
- symbol: Lu # 112
  position: [  0.0000000000000000,  0.8830805749999999,  0.1250000000000000 ]
  mass: 174.967000
- symbol: Lu # 113
  position: [  0.3333333333333333,  0.8830805749999999,  0.1250000000000000 ]
  mass: 174.967000
- symbol: Lu # 114
  position: [  0.6666666666666666,  0.8830805749999999,  0.1250000000000000 ]
  mass: 174.967000
- symbol: Lu # 115
  position: [  0.0000000000000000,  0.3830805750000000,  0.6250000000000000 ]
  mass: 174.967000
- symbol: Lu # 116
  position: [  0.3333333333333333,  0.3830805750000000,  0.6250000000000000 ]
  mass: 174.967000
- symbol: Lu # 117
  position: [  0.6666666666666666,  0.3830805750000000,  0.6250000000000000 ]
  mass: 174.967000
- symbol: Lu # 118
  position: [  0.0000000000000000,  0.8830805749999999,  0.6250000000000000 ]
  mass: 174.967000
- symbol: Lu # 119
  position: [  0.3333333333333333,  0.8830805749999999,  0.6250000000000000 ]
  mass: 174.967000
- symbol: Lu # 120
  position: [  0.6666666666666666,  0.8830805749999999,  0.6250000000000000 ]
  mass: 174.967000
- symbol: Ta # 121
  position: [  0.1666666666666667,  0.1496437400000000,  0.1250000000000000 ]
  mass: 180.947880
- symbol: Ta # 122
  position: [  0.5000000000000000,  0.1496437400000000,  0.1250000000000000 ]
  mass: 180.947880
- symbol: Ta # 123
  position: [  0.8333333333333334,  0.1496437400000000,  0.1250000000000000 ]
  mass: 180.947880
- symbol: Ta # 124
  position: [  0.1666666666666667,  0.6496437400000000,  0.1250000000000000 ]
  mass: 180.947880
- symbol: Ta # 125
  position: [  0.5000000000000000,  0.6496437400000000,  0.1250000000000000 ]
  mass: 180.947880
- symbol: Ta # 126
  position: [  0.8333333333333334,  0.6496437400000000,  0.1250000000000000 ]
  mass: 180.947880
- symbol: Ta # 127
  position: [  0.1666666666666667,  0.1496437400000000,  0.6250000000000000 ]
  mass: 180.947880
- symbol: Ta # 128
  position: [  0.5000000000000000,  0.1496437400000000,  0.6250000000000000 ]
  mass: 180.947880
- symbol: Ta # 129
  position: [  0.8333333333333334,  0.1496437400000000,  0.6250000000000000 ]
  mass: 180.947880
- symbol: Ta # 130
  position: [  0.1666666666666667,  0.6496437400000000,  0.6250000000000000 ]
  mass: 180.947880
- symbol: Ta # 131
  position: [  0.5000000000000000,  0.6496437400000000,  0.6250000000000000 ]
  mass: 180.947880
- symbol: Ta # 132
  position: [  0.8333333333333334,  0.6496437400000000,  0.6250000000000000 ]
  mass: 180.947880
- symbol: Ta # 133
  position: [  0.1666666666666667,  0.3503562600000000,  0.3750000000000000 ]
  mass: 180.947880
- symbol: Ta # 134
  position: [  0.5000000000000000,  0.3503562600000000,  0.3750000000000000 ]
  mass: 180.947880
- symbol: Ta # 135
  position: [  0.8333333333333334,  0.3503562600000000,  0.3750000000000000 ]
  mass: 180.947880
- symbol: Ta # 136
  position: [  0.1666666666666667,  0.8503562600000000,  0.3750000000000000 ]
  mass: 180.947880
- symbol: Ta # 137
  position: [  0.5000000000000000,  0.8503562600000000,  0.3750000000000000 ]
  mass: 180.947880
- symbol: Ta # 138
  position: [  0.8333333333333334,  0.8503562600000000,  0.3750000000000000 ]
  mass: 180.947880
- symbol: Ta # 139
  position: [  0.1666666666666667,  0.3503562600000000,  0.8750000000000000 ]
  mass: 180.947880
- symbol: Ta # 140
  position: [  0.5000000000000000,  0.3503562600000000,  0.8750000000000000 ]
  mass: 180.947880
- symbol: Ta # 141
  position: [  0.8333333333333334,  0.3503562600000000,  0.8750000000000000 ]
  mass: 180.947880
- symbol: Ta # 142
  position: [  0.1666666666666667,  0.8503562600000000,  0.8750000000000000 ]
  mass: 180.947880
- symbol: Ta # 143
  position: [  0.5000000000000000,  0.8503562600000000,  0.8750000000000000 ]
  mass: 180.947880
- symbol: Ta # 144
  position: [  0.8333333333333334,  0.8503562600000000,  0.8750000000000000 ]
  mass: 180.947880