144  
20   

1    
  0.0099970288539624   0.0000000000000000  -0.0002437500626524
  -0.1638140400   -0.0071190300    0.0701554000
   0.0031857100   -0.0014453900   -0.0002977900
   0.0031908700    0.0001011000   -0.0000832200
  -0.0020884900   -0.0005505900    0.0009871100
   0.0000914000   -0.0008875100    0.0006591200
   0.0001074100   -0.0006084300    0.0002610400
  -0.0017651500   -0.0007050300   -0.0010053000
   0.0001009300   -0.0005146400    0.0002959200
   0.0001127100   -0.0006207300    0.0001964500
  -0.0016309200   -0.0005262100    0.0001566600
  -0.0002988500   -0.0003932500    0.0001428700
  -0.0002737100   -0.0006788800    0.0003032700
   0.0084463000   -0.0093646100   -0.0093417500
   0.0014689400   -0.0012156100    0.0028651200
   0.0024664900   -0.0008529800   -0.0007897200
   0.0002589500   -0.0004247600   -0.0003794000
   0.0001031900   -0.0001370500    0.0001199800
   0.0017097900   -0.0007175600   -0.0005687000
  -0.0012919400   -0.0002137000    0.0032997700
   0.0033291900    0.0009217800   -0.0040588900
   0.0022501200   -0.0004618600   -0.0004460200
  -0.0000174900   -0.0011614500   -0.0003053500
   0.0005149000   -0.0011132000   -0.0008204100
   0.0016740800   -0.0005573800   -0.0004421400
   0.0000093900    0.0005735200   -0.0016580300
  -0.0000604300    0.0003829500   -0.0004018200
   0.0018858600    0.0007157200   -0.0005403700
   0.0005370400    0.0008229800   -0.0007760500
   0.0004583900    0.0004990300   -0.0005469100
   0.0015218900    0.0006219200   -0.0004623800
   0.0447470900   -0.0162281800    0.0014566400
   0.0241018700    0.0073843400   -0.0032212800
   0.0028462200    0.0005449400   -0.0006768400
  -0.0003641300    0.0013302700    0.0002824600
  -0.0000005200    0.0001899900    0.0001615600
   0.0018640300    0.0005948800   -0.0005594700
  -0.0080993100   -0.0017614700   -0.0011672800
   0.0006878700    0.0011423800    0.0011269000
   0.0016350300    0.0006278700   -0.0005529700
  -0.0018187600    0.0014595300    0.0005832500
  -0.0003330500    0.0006289600    0.0007380000
   0.0002013500    0.0007577400   -0.0001430600
  -0.0082520400    0.0049845100   -0.0052483200
   0.0016073500   -0.0004898300   -0.0010396100
   0.0007027900    0.0004537800    0.0010642000
  -0.0018314500    0.0004785200    0.0004628700
   0.0001798300    0.0002119300   -0.0002882000
  -0.0003064800    0.0006008900    0.0005584400
  -0.0005646200   -0.0014046600   -0.0017808700
   0.0019635800    0.0011827500    0.0032925200
   0.0015556000   -0.0002457500    0.0001004300
  -0.0004924300    0.0017860900   -0.0020210000
  -0.0011595600    0.0001437000   -0.0002167600
   0.0015129300   -0.0001742500   -0.0000585500
   0.0061096600   -0.0044420900    0.0019810400
  -0.0013258700    0.0021227400   -0.0019538500
   0.0019451500   -0.0005122200    0.0002010100
  -0.0013702000    0.0017484900    0.0004689100
   0.0050077200   -0.0069125300   -0.0026505300
   0.0015691200   -0.0003612800   -0.0000661300
  -0.0025923100   -0.0010972100   -0.0007247700
   0.0011630300    0.0010183600    0.0011449500
   0.0003990700    0.0002255300    0.0007030500
  -0.0013778400    0.0000809700   -0.0013142100
   0.0002685500    0.0001742500    0.0007254200
   0.0005554200    0.0009472300    0.0004259900
  -0.0092235600    0.0034839800   -0.0037303600
   0.0020641300    0.0018761800    0.0013093800
   0.0020260800   -0.0000612600    0.0015427300
  -0.0057903400   -0.0037639500    0.0012268700
   0.0013080900    0.0001198000    0.0006612800
   0.0018472600    0.0015586800    0.0011651300
  -0.0138674700    0.0065435400   -0.0039526800
   0.0025328800   -0.0020010200    0.0020467700
   0.0011816900   -0.0003121300    0.0004644600
  -0.0033298300    0.0018303600    0.0006801800
   0.0007309800   -0.0002468900    0.0009979000
   0.0013812400   -0.0018661500    0.0002659400
  -0.0046754000   -0.0003103200   -0.0036918500
   0.0009401100   -0.0008739000    0.0005764200
   0.0009309400   -0.0000816500    0.0017411700
  -0.0018717500    0.0003749100   -0.0001387700
   0.0004815000   -0.0000961500    0.0003581500
   0.0011147400   -0.0010308500    0.0011746900
   0.0078520100    0.0079451200    0.0041744200
   0.0043145100   -0.0035191200    0.0029837000
   0.0020873600    0.0005089800    0.0002246300
  -0.0013999700   -0.0029082500   -0.0012709500
   0.0012934900    0.0022608400   -0.0009222300
   0.0017174400    0.0002654100   -0.0000857100
  -0.0010200500   -0.0004898200   -0.0013518300
  -0.0008121800   -0.0007350900   -0.0016460100
   0.0014912200    0.0002662900    0.0000846800
  -0.0004574500   -0.0009562900   -0.0005606300
  -0.0003371800   -0.0000102000   -0.0007873300
   0.0013025100    0.0002082600   -0.0000736400
  -0.0024402800   -0.0007822900    0.0028476400
   0.0046358700    0.0027955000    0.0014213600
  -0.0024419200    0.0011795300   -0.0008686000
  -0.0004373300    0.0016123100    0.0005674900
   0.0023349300    0.0005077300   -0.0003770500
  -0.0018306200    0.0008183900   -0.0002529500
  -0.0046289100   -0.0022778600   -0.0061522600
   0.0115857300    0.0033497500   -0.0023475200
  -0.0033264000    0.0015706600    0.0000851400
  -0.0008669900    0.0030781900    0.0000925500
   0.0023365900    0.0001163300    0.0006438600
  -0.0024638700    0.0007793100    0.0002009400
  -0.0054539200    0.0044252000    0.0036250300
   0.0040790400   -0.0113799800   -0.0102662100
  -0.0033162100   -0.0014456300   -0.0008503500
  -0.0025592600   -0.0044165500    0.0012254900
   0.0044683600   -0.0008621400   -0.0028883500
  -0.0025124800   -0.0005360600   -0.0002325700
  -0.0009080500   -0.0010249100   -0.0018694900
   0.0022801700   -0.0021018700    0.0023011200
  -0.0024445100   -0.0014460100   -0.0000891400
   0.0000112300   -0.0012589800   -0.0002331000
   0.0020982200   -0.0001015000    0.0020756100
  -0.0018710600   -0.0009578900    0.0001137700
   0.0697592400    0.0300450500   -0.0477202700
  -0.0081241300    0.0025016400   -0.0057530900
  -0.0045188000   -0.0008736600    0.0003641800
   0.0041388200   -0.0001553200    0.0006508400
  -0.0012275100   -0.0017775800   -0.0014571900
  -0.0026129300    0.0002414500   -0.0003914600
   0.0066658400   -0.0016281900    0.0020767900
  -0.0016462000    0.0014225400    0.0025169500
  -0.0026653300   -0.0005157400   -0.0007807600
   0.0023682100    0.0003855200    0.0005163300
  -0.0004485400   -0.0005538100    0.0008800500
  -0.0018974600    0.0001572400   -0.0006295700
   0.0055327200    0.0043191500    0.0049371300
  -0.0020207100   -0.0004279000   -0.0024654700
  -0.0027544900    0.0007723400    0.0004323300
   0.0017548200   -0.0018669000    0.0021278500
   0.0001725100    0.0003647900   -0.0003449200
  -0.0019726000    0.0001320700   -0.0000844700
   0.0282381900   -0.0029872200    0.0020711600
  -0.0068993000   -0.0040238300    0.0059914500
  -0.0045502200    0.0005153300   -0.0013597400
   0.0051788900   -0.0002644400   -0.0003638200
  -0.0029271700    0.0034698500   -0.0008175400
  -0.0026023600   -0.0004332900   -0.0009481200

1    
 -0.0099970288539624   0.0000000000000000   0.0002437500626524
   0.1645130800    0.0069913800   -0.0710259400
  -0.0046349000    0.0002104700    0.0010623000
  -0.0046304800   -0.0013036700    0.0008502400
   0.0006673500   -0.0006576800   -0.0002341500
  -0.0015852000   -0.0003448300    0.0001228600
  -0.0015220700   -0.0005971400    0.0005020000
   0.0003620400   -0.0004956400    0.0017759100
  -0.0015498500   -0.0006965600    0.0004683500
  -0.0015411500   -0.0005886000    0.0005757900
   0.0002111200   -0.0006868900    0.0006221800
  -0.0011830600   -0.0008334100    0.0006348700
  -0.0011687900   -0.0005355800    0.0004780200
  -0.0070693000    0.0081816300    0.0085876000
  -0.0000152600   -0.0000020300   -0.0036268300
  -0.0010402200   -0.0003615400    0.0000248200
   0.0011662300   -0.0007856300   -0.0003948000
   0.0013546600   -0.0010851400   -0.0008938000
  -0.0003068600   -0.0004804400   -0.0001851200
   0.0027312200   -0.0009813500   -0.0040508900
  -0.0018387100   -0.0021330400    0.0032597600
  -0.0008378000   -0.0007377900   -0.0003258800
   0.0014772100   -0.0000493500   -0.0004691000
   0.0009141800   -0.0001151600    0.0000598300
  -0.0002789600   -0.0006346700   -0.0003225600
   0.0014328400    0.0006458500    0.0008866900
   0.0015100000    0.0008423600   -0.0003702300
  -0.0004762300    0.0004844700   -0.0002276800
   0.0009065000    0.0003769300    0.0000105600
   0.0009689800    0.0007060800   -0.0002095300
  -0.0000981700    0.0005856300   -0.0003090700
  -0.0442991500    0.0178438900   -0.0022568300
  -0.0222786200   -0.0060390600    0.0024266900
  -0.0014061900    0.0006607800   -0.0001104100
   0.0018191200   -0.0001240300   -0.0010688400
   0.0014639400    0.0010191200   -0.0009403700
  -0.0004176600    0.0006211200   -0.0002312700
   0.0067586800    0.0029492900    0.0017652000
  -0.0021352200    0.0000798100   -0.0003464900
  -0.0030415000    0.0005756600    0.0013236800
   0.0004317300   -0.0002684200    0.0001795700
  -0.0011526100    0.0005898600    0.0000387800
  -0.0015956300    0.0004463600    0.0009046500
   0.0068100900   -0.0038217000    0.0061139900
  -0.0030755200    0.0017098700    0.0018024100
  -0.0021366500    0.0007556100   -0.0002973500
   0.0003935600    0.0007212900    0.0003269200
  -0.0016302300    0.0010049500    0.0010501400
  -0.0010921500    0.0005954000    0.0001986600
   0.0009367000    0.0018821400    0.0008569400
  -0.0015893400   -0.0006968400   -0.0042383500
  -0.0011584600    0.0007103900   -0.0010515700
   0.0008569400   -0.0013234900    0.0011011100
   0.0015290200    0.0003481100   -0.0007370300
  -0.0011003400    0.0006328600   -0.0008777400
  -0.0056724500    0.0048282700   -0.0028583200
   0.0016775000   -0.0016124600    0.0009945400
  -0.0015421600    0.0009741900   -0.0011502900
   0.0017364700   -0.0012672400   -0.0014034600
  -0.0045949200    0.0073380400    0.0016821900
  -0.0011591600    0.0008067600   -0.0008859400
   0.0021986600    0.0015648400    0.0016722200
  -0.0015582300   -0.0005485200   -0.0001973100
  -0.0007410200    0.0002555400    0.0002347900
   0.0009755500    0.0003744800    0.0022673000
  -0.0006379700    0.0003202000    0.0002357600
  -0.0009092300   -0.0004643400    0.0005134300
   0.0087601800   -0.0032207300    0.0047476800
  -0.0024420100   -0.0013843100   -0.0003585800
  -0.0023861000    0.0005510400   -0.0006132700
   0.0053585600    0.0043255500   -0.0002596900
  -0.0017053200    0.0003470500    0.0002774900
  -0.0022173400   -0.0011027600   -0.0002436500
   0.0135918400   -0.0070670500    0.0049383900
  -0.0029032900    0.0015091800   -0.0010760300
  -0.0015347400   -0.0001650900    0.0004781800
   0.0029301200   -0.0023022900    0.0002703200
  -0.0011221300   -0.0002308300   -0.0000467900
  -0.0017240300    0.0013824200    0.0006738000
   0.0042431100   -0.0001494200    0.0046284700
  -0.0013216000    0.0003855600    0.0003756100
  -0.0012805300   -0.0004052800   -0.0008096400
   0.0014650500   -0.0008353000    0.0011029500
  -0.0008666000   -0.0003881500    0.0005887700
  -0.0014502000    0.0005457000   -0.0002275500
  -0.0075547700   -0.0084702100   -0.0051184200
  -0.0038923200    0.0030135000   -0.0039109300
  -0.0016639000   -0.0009502500   -0.0011631600
   0.0017781300    0.0024413700    0.0003404400
  -0.0009392900   -0.0027519500   -0.0000416900
  -0.0013070800   -0.0007307400   -0.0008643800
   0.0013894200    0.0000243300    0.0004297900
   0.0011763000    0.0002467400    0.0006799100
  -0.0010894600   -0.0007241400   -0.0010347700
   0.0008228800    0.0004862400   -0.0003598700
   0.0007031600   -0.0004828900   -0.0001703300
  -0.0009017400   -0.0006636700   -0.0008742800
   0.0024293800    0.0029104300   -0.0028614800
  -0.0046178000   -0.0006908300   -0.0014406100
   0.0024380500    0.0009568900    0.0008638500
   0.0004293300    0.0005189800   -0.0005729500
  -0.0023216500    0.0016276200    0.0003734600
   0.0018202100    0.0013077100    0.0002548000
   0.0046101200    0.0044250400    0.0061885000
  -0.0109820200   -0.0017468300    0.0016814900
   0.0033134600    0.0005593600   -0.0000821600
   0.0008381200   -0.0009368800   -0.0000740500
  -0.0022805000    0.0020340500   -0.0006640000
   0.0024534700    0.0013382300   -0.0001998400
   0.0054583300   -0.0065819900   -0.0036621100
  -0.0038172300    0.0094635800    0.0104601800
   0.0033003400   -0.0006878900    0.0008435500
   0.0025581300    0.0023032200   -0.0012271500
  -0.0044472800   -0.0012323300    0.0029088800
   0.0025000700   -0.0015836400    0.0002286800
   0.0008788400   -0.0011168800    0.0018505200
  -0.0022342700   -0.0000099300   -0.0023044900
   0.0024311300   -0.0006896200    0.0000913400
  -0.0000230500   -0.0008665100    0.0002237500
  -0.0020829700   -0.0020152900   -0.0020712100
   0.0018707100   -0.0011683200   -0.0001094600
  -0.0716897500   -0.0320586800    0.0504808800
   0.0080815400   -0.0029145400    0.0057187700
   0.0045029300    0.0004613200   -0.0003767600
  -0.0041562000   -0.0002413500   -0.0006248300
   0.0012370500    0.0013557200    0.0014568600
   0.0026086100   -0.0006569900    0.0003798800
  -0.0066678200    0.0011636400   -0.0021084600
   0.0016379700   -0.0018344200   -0.0024934500
   0.0026470700    0.0001086100    0.0007690600
  -0.0023607400   -0.0007770400   -0.0005252100
   0.0004626500    0.0001288300   -0.0008822900
   0.0018884200   -0.0005580000    0.0006149600
  -0.0055893100   -0.0039063500   -0.0049299600
   0.0020263600    0.0008477900    0.0024642900
   0.0027385700   -0.0003784900   -0.0004438500
  -0.0017505400    0.0023005300   -0.0021258300
  -0.0001696000    0.0000617600    0.0003324400
   0.0019550200    0.0002877500    0.0000795200
  -0.0286648500    0.0040874700   -0.0027060100
   0.0068805400    0.0044238900   -0.0059487300
   0.0045452500   -0.0001103200    0.0013645600
  -0.0052036000    0.0006484200    0.0003532900
   0.0029194200   -0.0030107800    0.0008258100
   0.0025798500    0.0008580200    0.0009531800

1    
  0.0000000000000000   0.0100000000000000   0.0000000000000000
  -0.0063919900   -0.1150851400    0.0459335200
   0.0000201200   -0.0014525400    0.0007285400
  -0.0014788400   -0.0014366300    0.0008824200
  -0.0006235700    0.0042054700   -0.0000351600
  -0.0007075700    0.0000757600   -0.0001928600
  -0.0009338100    0.0000771600    0.0009204300
  -0.0007833700   -0.0014105500   -0.0001095900
  -0.0006990100   -0.0010489500    0.0008038300
  -0.0005824500   -0.0010387100   -0.0000803000
  -0.0005988700    0.0003419000   -0.0000640800
  -0.0007740000   -0.0002687800    0.0001897300
  -0.0004571000   -0.0002682900    0.0001414200
   0.0091878500   -0.0126410300   -0.0094747100
   0.0012999700   -0.0026804100   -0.0000045300
   0.0009219900   -0.0006608600   -0.0004556700
   0.0004987600    0.0003163000    0.0001302000
   0.0002238100    0.0004273300   -0.0002404900
   0.0007822200   -0.0004086300   -0.0003306500
   0.0002302700   -0.0042893600   -0.0022229100
  -0.0008014200   -0.0029920600    0.0008397900
   0.0005191800   -0.0008434800   -0.0004809000
   0.0012563900    0.0019821000    0.0005805700
   0.0011698600    0.0006394100   -0.0008921900
   0.0006275500   -0.0003332500   -0.0001770000
   0.0006010700   -0.0002574900   -0.0016568800
   0.0004660400   -0.0001207700   -0.0000593300
   0.0007805000    0.0005313700   -0.0004480900
   0.0008751200    0.0013610900   -0.0010169200
   0.0005764500    0.0010654600   -0.0004264300
   0.0006766600    0.0008789600   -0.0006266300
  -0.0162430100   -0.0085550300    0.0025249300
   0.0073383400   -0.0015344000   -0.0018942400
   0.0006178300    0.0003670300   -0.0001004000
   0.0013712600    0.0029812600   -0.0015350600
   0.0002783900    0.0022285700   -0.0002228900
   0.0006534600    0.0007572900   -0.0004262500
  -0.0048584500   -0.0039582400    0.0081307600
  -0.0005544700    0.0000591700   -0.0001693000
   0.0004304400    0.0000473600    0.0003998900
  -0.0005323700    0.0027500200    0.0004229200
  -0.0006821800    0.0011286900    0.0008058400
  -0.0002736400    0.0009578300    0.0001587700
   0.0015170100   -0.0039552200   -0.0075367500
  -0.0007267800    0.0000550500   -0.0001031900
  -0.0011956600    0.0000488000    0.0003146700
  -0.0014830700    0.0027417100    0.0021046700
  -0.0008284100    0.0009708900    0.0007143100
  -0.0006894600    0.0011243400    0.0003950300
  -0.0000697100   -0.0011623600   -0.0006387800
   0.0033159800    0.0004513300    0.0041679500
   0.0003618700    0.0001095100   -0.0004233100
   0.0007345300    0.0016484800   -0.0017380000
  -0.0013090700    0.0007953900   -0.0014995700
   0.0002829000    0.0002727400   -0.0005194600
  -0.0146906700    0.0121968500   -0.0053097300
   0.0012316700   -0.0001852600   -0.0010340300
   0.0000740800    0.0002380600   -0.0004979000
   0.0018157500   -0.0002648400    0.0016150700
  -0.0026262300    0.0039145500    0.0002512800
   0.0002253200    0.0002144100   -0.0004053700
  -0.0013276900   -0.0005644900    0.0000403700
   0.0002304800    0.0003184600    0.0007351700
  -0.0005259200    0.0001740500   -0.0000963000
  -0.0000467100    0.0009630600   -0.0007111200
  -0.0003723600    0.0002376600    0.0003851500
   0.0003243600    0.0006021300    0.0003849400
   0.0036522700    0.0306648800   -0.0083170200
   0.0002012900    0.0002897200    0.0005432200
  -0.0010096200   -0.0000283800    0.0008124500
   0.0013414500    0.0215649800    0.0064333100
  -0.0007197000    0.0002376700    0.0003800700
   0.0008696400    0.0005546200    0.0010722900
  -0.0003484100    0.0064653700   -0.0099095600
  -0.0003553600   -0.0004602500    0.0002693800
   0.0009904100   -0.0006374900    0.0006625700
  -0.0021437500    0.0025758000    0.0020892300
   0.0001907600   -0.0000955900    0.0006150800
  -0.0002912500   -0.0000899200    0.0005834900
   0.0015983100   -0.0013788600    0.0030225500
  -0.0004281000   -0.0004043100    0.0004903300
   0.0001733400   -0.0005426300    0.0005532000
  -0.0004216000    0.0015002400   -0.0020329400
  -0.0001397900   -0.0000222500    0.0004242900
  -0.0019196800    0.0006017900   -0.0003303500
   0.0064925400    0.0036408800    0.0015371400
  -0.0045270200   -0.0007372600   -0.0025550900
   0.0003236800   -0.0002923300   -0.0003850600
  -0.0005527400    0.0012539000    0.0010100900
   0.0035080500    0.0026186100   -0.0004028200
   0.0003047600   -0.0000362900   -0.0003755000
  -0.0003655200   -0.0010072000   -0.0009818100
  -0.0003979800   -0.0005764400   -0.0006126700
   0.0001073700   -0.0003552200   -0.0005285900
   0.0004954400    0.0005756900   -0.0014299200
   0.0004340500    0.0002545600   -0.0003152600
   0.0001523100   -0.0001835100   -0.0005670700
  -0.0023484600    0.0000658500    0.0023797700
   0.0020432200    0.0038900500    0.0029372100
  -0.0000275500    0.0013112400    0.0001060300
  -0.0001107500    0.0007456600    0.0003451600
   0.0004123600   -0.0002319900   -0.0007646800
  -0.0002269700    0.0007506000   -0.0000068300
  -0.0019772100    0.0053142700   -0.0014919000
  -0.0043022000    0.0142690700    0.0041265900
   0.0001344600    0.0015397200   -0.0000234900
   0.0022247600   -0.0028020600   -0.0018914600
  -0.0040026400   -0.0049569300    0.0027572200
  -0.0000952000    0.0006614400    0.0000326200
   0.0008343400   -0.0002400000   -0.0040274300
  -0.0087877400    0.0022163700   -0.0120033400
  -0.0004070900   -0.0008713200   -0.0001806100
  -0.0023802600   -0.0035155100    0.0007301400
   0.0035866900   -0.0059448700    0.0017241000
   0.0000990900   -0.0013498500    0.0001105800
   0.0017575600    0.0006835800    0.0037311400
  -0.0013032900   -0.0009850700    0.0014773200
  -0.0000863300   -0.0008835900    0.0000053500
  -0.0006869900   -0.0015258000   -0.0005458100
   0.0005865600   -0.0018879100   -0.0007361100
   0.0001743000   -0.0012027800   -0.0000511900
   0.0143674600    0.0475092700   -0.0230604500
   0.0017860500    0.0041493500    0.0009302600
  -0.0008598900    0.0005333300   -0.0008908300
   0.0017882900   -0.0063265900   -0.0016202400
  -0.0015946600   -0.0031077100   -0.0008334100
  -0.0000301500   -0.0006838900   -0.0002852200
  -0.0002275000    0.0047150100    0.0010681100
   0.0012178400    0.0006113900   -0.0005830200
  -0.0000018100    0.0004084400    0.0002682400
  -0.0000628000   -0.0044027800    0.0014734800
  -0.0003440600   -0.0012170300    0.0000132200
   0.0006245700   -0.0012577900    0.0005916700
   0.0058702200    0.0032745500    0.0017313400
  -0.0018300200    0.0022973300   -0.0012580700
  -0.0002983300    0.0008143800    0.0005855100
  -0.0007298400   -0.0032834600    0.0018789300
   0.0009883400   -0.0009261900    0.0003710000
  -0.0005410800   -0.0002400700    0.0001622900
   0.0158291300    0.0136868000    0.0020207100
  -0.0019801900    0.0012397300    0.0018801000
   0.0009658000    0.0007852000   -0.0000713300
  -0.0063146900   -0.0098303000   -0.0058667400
   0.0018369500   -0.0020668300    0.0005615100
  -0.0004350500   -0.0005233900   -0.0004077100

1    
  0.0000000000000000  -0.0100000000000000   0.0000000000000000
   0.0055172100    0.1127396500   -0.0447221400
  -0.0013700100    0.0002200000    0.0000259100
   0.0001943000    0.0002499200   -0.0001520800
  -0.0006973300   -0.0053894300    0.0007896300
  -0.0006549500   -0.0012933100    0.0009631400
  -0.0003940200   -0.0012825800   -0.0001605200
  -0.0005199100    0.0001911500    0.0008599400
  -0.0006463500   -0.0001648100   -0.0000327000
  -0.0007214000   -0.0001711200    0.0008287700
  -0.0007183300   -0.0015414000    0.0008212200
  -0.0005999100   -0.0009522900    0.0005577300
  -0.0008931200   -0.0009576500    0.0006313300
  -0.0079303700    0.0114652400    0.0087848900
   0.0000582200    0.0014286900   -0.0007899000
   0.0003983200   -0.0005638500   -0.0003012000
   0.0008047500   -0.0015104000   -0.0008717400
   0.0011524500   -0.0016486400   -0.0005148200
   0.0004892500   -0.0007847600   -0.0004154500
   0.0010597500    0.0030790400    0.0014706700
   0.0022001600    0.0017737200   -0.0016138100
   0.0007705600   -0.0003545400   -0.0002617600
   0.0000971800   -0.0031884200   -0.0013406800
   0.0001786300   -0.0018716300    0.0001307400
   0.0006470100   -0.0008597000   -0.0005632300
   0.0007205800    0.0014727700    0.0008887900
   0.0008835700    0.0013434100   -0.0006940300
   0.0005132400    0.0006756500   -0.0003092200
   0.0004548600   -0.0001533900    0.0002480100
   0.0007583800    0.0001425900   -0.0003233300
   0.0006293000    0.0003284100   -0.0001331600
   0.0176722200    0.0095683300   -0.0033127100
  -0.0060619000    0.0026896000    0.0011616500
   0.0007022500    0.0008329900   -0.0006626100
  -0.0000479800   -0.0017683700    0.0007762900
   0.0010806000   -0.0009978400   -0.0005384300
   0.0006754700    0.0004576400   -0.0003492900
   0.0035887800    0.0050860300   -0.0074758500
  -0.0007816200    0.0011724400    0.0009111500
  -0.0017112700    0.0011659800    0.0003552500
  -0.0007405600   -0.0015423800    0.0003354200
  -0.0006901800    0.0000953100   -0.0000379300
  -0.0009903700    0.0002462300    0.0005877700
  -0.0027845900    0.0050921200    0.0082928800
  -0.0006509500    0.0011788600    0.0008618400
  -0.0001128200    0.0011607500    0.0004410600
   0.0001609700   -0.0015443000   -0.0013504600
  -0.0004900500    0.0002500900    0.0000446200
  -0.0006131600    0.0000802600    0.0003556500
   0.0003766800    0.0016238600   -0.0002982000
  -0.0029609800    0.0000361500   -0.0050605800
  -0.0000032100    0.0003298600   -0.0005370700
  -0.0004321900   -0.0011790800    0.0008004400
   0.0016404300   -0.0003148000    0.0005308200
   0.0000756300    0.0001922000   -0.0004285200
   0.0149117700   -0.0116050400    0.0043862000
  -0.0008904600    0.0006457800    0.0000831800
   0.0002629300    0.0002227600   -0.0004421600
  -0.0015370800    0.0007581800   -0.0025607700
   0.0029193200   -0.0034228700   -0.0011940300
   0.0001148700    0.0002302100   -0.0005486300
   0.0009750900    0.0010103300    0.0008932800
  -0.0005636100    0.0001578000    0.0002300000
   0.0002243400    0.0002888600    0.0010299500
  -0.0002941600   -0.0005151800    0.0016659800
   0.0000598600    0.0002186800    0.0005685700
  -0.0006235600   -0.0001056300    0.0005623900
  -0.0038901000   -0.0295706900    0.0090586700
  -0.0005308600    0.0001883600    0.0004084300
   0.0007049700    0.0004884400    0.0001169800
  -0.0016597200   -0.0213976500   -0.0055867000
   0.0003990900    0.0002253700    0.0005835800
  -0.0011710500   -0.0000899500   -0.0001455800
  -0.0000456400   -0.0069497100    0.0109590200
   0.0000260800   -0.0000203800    0.0006817000
  -0.0012899900    0.0001786700    0.0002780000
   0.0017923000   -0.0030122600   -0.0011110700
  -0.0005103300   -0.0003736400    0.0003391100
   0.0000072700   -0.0003945500    0.0003518700
  -0.0019280500    0.0009272500   -0.0020549600
   0.0000903000   -0.0000751300    0.0004671000
  -0.0004735500    0.0000859800    0.0003920500
   0.0000791500   -0.0019414200    0.0029836800
  -0.0001907800   -0.0004472800    0.0005263000
   0.0016360000   -0.0010800100    0.0012756900
  -0.0061819900   -0.0040943600   -0.0023900600
   0.0048441000    0.0002903200    0.0016072600
   0.0000260600   -0.0001579500   -0.0005548900
   0.0008402800   -0.0017425000   -0.0019385700
  -0.0031592500   -0.0030675600   -0.0005569500
   0.0000466700   -0.0004103000   -0.0005931700
   0.0006515800    0.0005549200    0.0000319800
   0.0007216200    0.0001211700   -0.0003330400
   0.0002452000   -0.0001011000   -0.0004299100
  -0.0002067000   -0.0010448700    0.0004941800
  -0.0001091300   -0.0007364900   -0.0006376600
   0.0001876800   -0.0002517400   -0.0003904200
   0.0023529300    0.0020518600   -0.0023664200
  -0.0020346300   -0.0017995200   -0.0029270100
   0.0000414500    0.0007897000   -0.0001080400
   0.0001124600    0.0013843400   -0.0003271700
  -0.0004032800    0.0023334800    0.0007501000
   0.0002029400    0.0013663300    0.0000193100
   0.0019594100   -0.0032229700    0.0014612000
   0.0046998600   -0.0123336800   -0.0045279700
  -0.0001395700    0.0005625000    0.0000346300
  -0.0021960600    0.0049107800    0.0018942300
   0.0039461900    0.0070270200   -0.0027426500
   0.0000809600    0.0014404300   -0.0000120800
  -0.0008354600   -0.0018453900    0.0040383400
   0.0090154800   -0.0038463000    0.0122050400
   0.0004016800   -0.0012331600    0.0001784100
   0.0023876500    0.0014000000   -0.0007333700
  -0.0035860300    0.0038301300   -0.0017508000
  -0.0000989100   -0.0007732800   -0.0001259800
  -0.0017504400   -0.0028065700   -0.0037179000
   0.0013239300   -0.0010988500   -0.0014590600
   0.0000606500   -0.0012177200   -0.0000048600
   0.0006905800   -0.0005913000    0.0005444700
  -0.0006012800   -0.0002189600    0.0007483300
  -0.0001807300   -0.0009124400    0.0000390600
  -0.0149701000   -0.0479342900    0.0236514200
  -0.0017872200   -0.0046274800   -0.0009213800
   0.0008173300   -0.0010069000    0.0008953700
  -0.0017578400    0.0058402800    0.0015968900
   0.0015730400    0.0026200200    0.0008267400
   0.0000216900    0.0002214600    0.0002590900
   0.0002258200   -0.0051875600   -0.0010689300
  -0.0012399200   -0.0010815500    0.0005965800
   0.0000054500   -0.0008794500   -0.0002801100
   0.0000759600    0.0039449700   -0.0014389400
   0.0003436700    0.0007368600   -0.0000185100
  -0.0006053300    0.0008055700   -0.0006219700
  -0.0059142600   -0.0028002900   -0.0017054500
   0.0018101000   -0.0017879400    0.0012609700
   0.0002828400   -0.0003525000   -0.0005864400
   0.0007245600    0.0037379200   -0.0018600300
  -0.0009741100    0.0013896100   -0.0003796800
   0.0005204200    0.0007054200   -0.0001548400
  -0.0163397800   -0.0125908000   -0.0027943300
   0.0019886000   -0.0007473500   -0.0019133200
  -0.0009743000   -0.0003196400    0.0000658300
   0.0063647200    0.0102799000    0.0059026800
  -0.0018446100    0.0025318500   -0.0005492200
   0.0004097400    0.0009863800    0.0004169800

1    
 -0.0008360032517718   0.0000000000000000   0.0099649936559451
   0.0808910100    0.0457674400   -0.1526030700
  -0.0015108400   -0.0000139100   -0.0000360700
  -0.0016874700   -0.0002882700   -0.0000556000
   0.0000243900   -0.0010021700   -0.0011244100
  -0.0009028100   -0.0000319200   -0.0003638600
  -0.0005044100   -0.0011563700   -0.0003336700
  -0.0018217100   -0.0010645900    0.0065814300
  -0.0009476100   -0.0010520000    0.0011232400
  -0.0008281400   -0.0001644300    0.0011352700
  -0.0007888400   -0.0010305700    0.0017921200
  -0.0008010000   -0.0008457300    0.0008822600
  -0.0009483600   -0.0007548200    0.0008709700
  -0.0086498000    0.0092410300    0.0100932700
   0.0038630900   -0.0009169200   -0.0005629600
   0.0001295400   -0.0004788800   -0.0001187200
   0.0007279400   -0.0011056800   -0.0006449100
   0.0012450400   -0.0007674900   -0.0006625700
   0.0004133700   -0.0006277200   -0.0003937100
   0.0045750800    0.0012237700    0.0023177700
  -0.0031124600   -0.0019280100    0.0023599300
   0.0004943200   -0.0004891600   -0.0002724900
   0.0008237300   -0.0014902600   -0.0000346700
   0.0002942600   -0.0000464700    0.0002157300
   0.0005431000   -0.0007947200   -0.0006040700
  -0.0004104900   -0.0006868000    0.0044392300
   0.0007887800    0.0009294300    0.0013710900
   0.0004339700    0.0005086100   -0.0001547500
   0.0003337100   -0.0000748000    0.0009392500
   0.0005809000    0.0005588900    0.0003598800
   0.0005496100    0.0003325100    0.0000324800
  -0.0014068600    0.0048839200   -0.0161882100
  -0.0042127600   -0.0014995500   -0.0041557900
   0.0001892300    0.0008665700   -0.0007022700
   0.0014137600   -0.0006346500   -0.0018086700
   0.0012596900    0.0007760800   -0.0016157900
   0.0003988700    0.0005314600   -0.0004010600
  -0.0050913500    0.0087222800    0.0268750600
  -0.0001641900    0.0006082600   -0.0001771400
  -0.0022941200    0.0010601300    0.0007563000
  -0.0005126000   -0.0012226500    0.0003597000
  -0.0005633700    0.0005676800    0.0001504200