    8    8   20    1
  0.1739161E+02  0.5181751E-09  0.5181751E-09  0.5181751E-09  0.5000000E-15
  1.000000000000000E-004
  CAR 
 unknown system                          
     56     10     36
