       N       E                     dE             d eps       ncg     rms          rms(c)
DAV:   1     0.457876892566E+03    0.45788E+03   -0.34691E+04   888   0.154E+03
DAV:   2    -0.407442822891E+01   -0.46195E+03   -0.44942E+03   856   0.389E+02
DAV:   3    -0.366690224988E+02   -0.32595E+02   -0.32427E+02   844   0.104E+02
DAV:   4    -0.376827227853E+02   -0.10137E+01   -0.10115E+01   868   0.161E+01
DAV:   5    -0.377113752720E+02   -0.28652E-01   -0.28643E-01   892   0.262E+00    0.855E+00
DAV:   6    -0.363949933162E+02    0.13164E+01   -0.25979E+00   768   0.654E+00    0.632E+00
DAV:   7    -0.362359493189E+02    0.15904E+00   -0.76543E-01   904   0.337E+00    0.358E+00
DAV:   8    -0.362292873650E+02    0.66620E-02   -0.49563E-02   788   0.136E+00    0.102E+00
DAV:   9    -0.362284792008E+02    0.80816E-03   -0.24660E-03   876   0.267E-01    0.282E-01
DAV:  10    -0.362285078212E+02   -0.28620E-04   -0.55158E-04   892   0.112E-01    0.161E-02
DAV:  11    -0.362285035434E+02    0.42778E-05   -0.27827E-05   820   0.292E-02    0.205E-02
DAV:  12    -0.362285029151E+02    0.62828E-06   -0.17798E-06   888   0.710E-03    0.231E-03
DAV:  13    -0.362285028657E+02    0.49418E-07   -0.15807E-07   864   0.205E-03    0.120E-03
DAV:  14    -0.362285028215E+02    0.44225E-07   -0.13346E-08   784   0.475E-04    0.160E-03
DAV:  15    -0.362285028580E+02   -0.36534E-07   -0.10937E-08   708   0.548E-04    0.567E-05
DAV:  16    -0.362285028557E+02    0.23010E-08   -0.17309E-10   432   0.890E-05
   1 F= -.36228503E+02 E0= -.36228503E+02  d E =-.362285E+02
       N       E                     dE             d eps       ncg     rms          rms(c)
DAV:   1    -0.362285847084E+02   -0.81850E-04   -0.22660E-03   912   0.478E-01    0.662E-02
DAV:   2    -0.362285259711E+02    0.58737E-04   -0.90191E-05   776   0.682E-02    0.327E-02
DAV:   3    -0.362285093169E+02    0.16654E-04   -0.38717E-05   824   0.430E-02    0.123E-02
DAV:   4    -0.362285090976E+02    0.21934E-06   -0.16368E-06   752   0.618E-03    0.720E-03
DAV:   5    -0.362285091566E+02   -0.58998E-07   -0.95626E-08   864   0.306E-03    0.213E-03
DAV:   6    -0.362285092005E+02   -0.43885E-07   -0.20254E-08   784   0.132E-03    0.686E-04
DAV:   7    -0.362285092265E+02   -0.26074E-07   -0.33157E-09   600   0.369E-04    0.131E-04
DAV:   8    -0.362285092220E+02    0.45220E-08   -0.15493E-10   400   0.102E-04
   2 F= -.36228509E+02 E0= -.36228509E+02  d E =-.636629E-05
       N       E                     dE             d eps       ncg     rms          rms(c)
DAV:   1    -0.362285120171E+02   -0.27906E-05   -0.70078E-05   912   0.841E-02    0.116E-02
DAV:   2    -0.362285103508E+02    0.16663E-05   -0.27846E-06   776   0.120E-02    0.574E-03
DAV:   3    -0.362285097709E+02    0.57999E-06   -0.11959E-06   824   0.757E-03    0.215E-03
DAV:   4    -0.362285096260E+02    0.14488E-06   -0.50366E-08   756   0.108E-03    0.126E-03
DAV:   5    -0.362285095374E+02    0.88621E-07   -0.28705E-09   644   0.538E-04    0.374E-04
DAV:   6    -0.362285095272E+02    0.10199E-07   -0.69226E-10   396   0.248E-04    0.113E-04
DAV:   7    -0.362285095220E+02    0.51832E-08   -0.27108E-10   396   0.107E-04
   3 F= -.36228510E+02 E0= -.36228510E+02  d E =-.666626E-05
       N       E                     dE             d eps       ncg     rms          rms(c)
DAV:   1    -0.362285095218E+02    0.53715E-08   -0.17139E-08   740   0.131E-03    0.175E-04
DAV:   2    -0.362285095198E+02    0.19963E-08   -0.58191E-10   396   0.195E-04    0.893E-05
DAV:   3    -0.362285095202E+02   -0.43838E-09   -0.46502E-10   396   0.124E-04    0.331E-05
DAV:   4    -0.362285095199E+02    0.28103E-09   -0.33201E-11   396   0.330E-05    0.433E-05
DAV:   5    -0.362285095240E+02   -0.40282E-08   -0.40946E-11   396   0.319E-05
   4 F= -.36228510E+02 E0= -.36228510E+02  d E =-.666826E-05
       N       E                     dE             d eps       ncg     rms          rms(c)
DAV:   1    -0.362285099509E+02   -0.43093E-06   -0.16975E-05   912   0.414E-02    0.572E-03
DAV:   2    -0.362285094535E+02    0.49743E-06   -0.67558E-07   776   0.591E-03    0.282E-03
DAV:   3    -0.362285093533E+02    0.10020E-06   -0.28976E-07   824   0.373E-03    0.106E-03
DAV:   4    -0.362285094047E+02   -0.51450E-07   -0.12206E-08   680   0.535E-04    0.624E-04
DAV:   5    -0.362285094398E+02   -0.35112E-07   -0.80009E-10   396   0.283E-04    0.153E-04
DAV:   6    -0.362285094447E+02   -0.48676E-08   -0.24873E-10   396   0.154E-04
   5 F= -.36228509E+02 E0= -.36228509E+02  d E =-.658897E-05
       N       E                     dE             d eps       ncg     rms          rms(c)
DAV:   1    -0.362285101147E+02   -0.67491E-06   -0.15580E-05   912   0.397E-02    0.549E-03
DAV:   2    -0.362285097744E+02    0.34029E-06   -0.61899E-07   776   0.565E-03    0.271E-03
DAV:   3    -0.362285096306E+02    0.14385E-06   -0.26598E-07   824   0.357E-03    0.102E-03
DAV:   4    -0.362285095686E+02    0.61967E-07   -0.11257E-08   664   0.513E-04    0.596E-04
DAV:   5    -0.362285095295E+02    0.39113E-07   -0.73103E-10   396   0.271E-04    0.147E-04
DAV:   6    -0.362285095247E+02    0.48176E-08   -0.22264E-10   396   0.148E-04
   6 F= -.36228510E+02 E0= -.36228510E+02  d E =-.666898E-05
       N       E                     dE             d eps       ncg     rms          rms(c)
DAV:   1    -0.362285095195E+02    0.10049E-07   -0.37457E-08   924   0.196E-03    0.270E-04
DAV:   2    -0.362285095163E+02    0.31878E-08   -0.13316E-09   396   0.275E-04    0.136E-04
DAV:   3    -0.362285095171E+02   -0.79581E-09   -0.99298E-10   396   0.179E-04    0.513E-05
DAV:   4    -0.362285095185E+02   -0.14443E-08   -0.52117E-11   396   0.470E-05    0.488E-05
DAV:   5    -0.362285095193E+02   -0.75306E-09   -0.16418E-11   396   0.296E-05
   7 F= -.36228510E+02 E0= -.36228510E+02  d E =-.666355E-05
       N       E                     dE             d eps       ncg     rms          rms(c)
DAV:   1    -0.362285095271E+02   -0.85802E-08   -0.26307E-08   824   0.165E-03    0.217E-04
DAV:   2    -0.362285095287E+02   -0.16535E-08   -0.94644E-10   396   0.246E-04    0.109E-04
DAV:   3    -0.362285095282E+02    0.59117E-09   -0.75119E-10   396   0.158E-04    0.453E-05
DAV:   4    -0.362285095291E+02   -0.92496E-09   -0.60011E-11   396   0.428E-05    0.656E-05
DAV:   5    -0.362285095227E+02    0.63446E-08   -0.74329E-11   396   0.418E-05
   8 F= -.36228510E+02 E0= -.36228510E+02  d E =-.666702E-05
       N       E                     dE             d eps       ncg     rms          rms(c)
DAV:   1    -0.362285095237E+02    0.53442E-08   -0.38848E-10   396   0.211E-04    0.352E-05
DAV:   2    -0.362285095240E+02   -0.22465E-09   -0.30107E-11   396   0.488E-05    0.182E-05
DAV:   3    -0.362285095240E+02   -0.23647E-10   -0.41203E-12   396   0.181E-05    0.518E-06
DAV:   4    -0.362285095238E+02    0.14734E-09    0.32889E-13   396   0.846E-06    0.451E-06
DAV:   5    -0.362285095236E+02    0.25648E-09    0.48151E-12   396   0.377E-06
   9 F= -.36228510E+02 E0= -.36228510E+02  d E =-.666786E-05
       N       E                     dE             d eps       ncg     rms          rms(c)
DAV:   1    -0.362285095235E+02    0.31559E-09   -0.15238E-11   396   0.451E-05    0.528E-06
DAV:   2    -0.362285095236E+02   -0.54570E-10   -0.30031E-12   396   0.104E-05    0.319E-06
DAV:   3    -0.362285095237E+02   -0.82764E-10    0.33277E-12   396   0.357E-06    0.810E-07
DAV:   4    -0.362285095238E+02   -0.13006E-09   -0.19884E-12   396   0.181E-06    0.769E-07
DAV:   5    -0.362285095237E+02    0.98225E-10   -0.18404E-12   388   0.740E-07
  10 F= -.36228510E+02 E0= -.36228510E+02  d E =-.666797E-05
       N       E                     dE             d eps       ncg     rms          rms(c)
DAV:   1    -0.362285095237E+02    0.67303E-10   -0.56067E-12   384   0.324E-05    0.388E-06
DAV:   2    -0.362285095236E+02    0.16826E-09   -0.10889E-12   384   0.739E-06    0.225E-06
DAV:   3    -0.362285095234E+02    0.11278E-09    0.45483E-12   384   0.245E-06    0.486E-07
DAV:   4    -0.362285095235E+02   -0.13642E-10    0.12675E-12   384   0.124E-06    0.472E-07
DAV:   5    -0.362285095236E+02   -0.11551E-09   -0.35818E-13   384   0.480E-07
  11 F= -.36228510E+02 E0= -.36228510E+02  d E =-.666785E-05
       N       E                     dE             d eps       ncg     rms          rms(c)
DAV:   1    -0.362285095235E+02   -0.32742E-10    0.69315E-13   384   0.163E-05    0.195E-06
DAV:   2    -0.362285095236E+02   -0.16007E-09   -0.53897E-13   384   0.372E-06    0.113E-06
DAV:   3    -0.362285095236E+02    0.45475E-10    0.13270E-13   384   0.123E-06    0.245E-07
DAV:   4    -0.362285095234E+02    0.22374E-09   -0.15216E-12   384   0.620E-07    0.239E-07
DAV:   5    -0.362285095236E+02   -0.23192E-09    0.12069E-12   384   0.243E-07
  12 F= -.36228510E+02 E0= -.36228510E+02  d E =-.666789E-05
       N       E                     dE             d eps       ncg     rms          rms(c)
DAV:   1    -0.362285095236E+02   -0.24829E-09   -0.27791E-12   384   0.814E-06    0.974E-07
DAV:   2    -0.362285095233E+02    0.28285E-09   -0.15096E-12   384   0.186E-06    0.564E-07
DAV:   3    -0.362285095236E+02   -0.29195E-09    0.24409E-12   384   0.614E-07    0.123E-07
DAV:   4    -0.362285095237E+02   -0.95497E-10   -0.62641E-14   384   0.311E-07    0.120E-07
DAV:   5    -0.362285095235E+02    0.24193E-09   -0.17097E-12   384   0.121E-07
  13 F= -.36228510E+02 E0= -.36228510E+02  d E =-.666777E-05
       N       E                     dE             d eps       ncg     rms          rms(c)
DAV:   1    -0.362285095235E+02    0.20009E-09    0.51151E-12   384   0.407E-06    0.487E-07
DAV:   2    -0.362285095235E+02    0.90949E-11    0.68421E-12   384   0.932E-07    0.282E-07
DAV:   3    -0.362285095236E+02   -0.99135E-10    0.75562E-12   384   0.307E-07    0.613E-08
DAV:   4    -0.362285095237E+02   -0.41837E-10    0.44679E-12   384   0.155E-07    0.597E-08
DAV:   5    -0.362285095235E+02    0.13915E-09    0.55748E-12   372   0.607E-08
  14 F= -.36228510E+02 E0= -.36228510E+02  d E =-.666781E-05
       N       E                     dE             d eps       ncg     rms          rms(c)
DAV:   1    -0.362285095236E+02    0.69122E-10    0.70514E-13   372   0.203E-06    0.243E-07
DAV:   2    -0.362285095233E+02    0.33015E-09    0.82400E-13   372   0.466E-07    0.141E-07
DAV:   3    -0.362285095236E+02   -0.34197E-09   -0.89173E-13   372   0.153E-07    0.308E-08
DAV:   4    -0.362285095235E+02    0.14734E-09   -0.17650E-13   372   0.777E-08    0.300E-08
DAV:   5    -0.362285095236E+02   -0.14916E-09    0.44404E-12   372   0.304E-08
  15 F= -.36228510E+02 E0= -.36228510E+02  d E =-.666789E-05
       N       E                     dE             d eps       ncg     rms          rms(c)
DAV:   1    -0.362285095235E+02   -0.68212E-10    0.27042E-12   372   0.102E-06    0.122E-07
DAV:   2    -0.362285095236E+02   -0.76398E-10    0.48833E-13   372   0.233E-07    0.704E-08
DAV:   3    -0.362285095234E+02    0.21373E-09    0.19492E-12   372   0.767E-08    0.153E-08
DAV:   4    -0.362285095238E+02   -0.39108E-09   -0.44486E-12   372   0.388E-08    0.149E-08
DAV:   5    -0.362285095237E+02    0.50022E-10    0.54241E-12   372   0.152E-08
  16 F= -.36228510E+02 E0= -.36228510E+02  d E =-.666801E-05
       N       E                     dE             d eps       ncg     rms          rms(c)
DAV:   1    -0.362285095236E+02    0.13551E-09    0.55213E-12   372   0.509E-07    0.609E-08
DAV:   2    -0.362285095237E+02   -0.60027E-10    0.53259E-12   364   0.117E-07    0.352E-08
DAV:   3    -0.362285095235E+02    0.20100E-09    0.35783E-12   360   0.383E-08    0.768E-09
DAV:   4    -0.362285095235E+02    0.30013E-10    0.36833E-12   360   0.194E-08    0.753E-09
DAV:   5    -0.362285095235E+02   -0.10914E-10    0.28249E-12   360   0.757E-09
  17 F= -.36228510E+02 E0= -.36228510E+02  d E =-.666777E-05
       N       E                     dE             d eps       ncg     rms          rms(c)
DAV:   1    -0.362285095236E+02   -0.11460E-09   -0.12734E-12   360   0.254E-07    0.304E-08
DAV:   2    -0.362285095235E+02    0.77307E-10    0.56489E-12   360   0.583E-08    0.177E-08
DAV:   3    -0.362285095233E+02    0.16007E-09   -0.21205E-12   360   0.192E-08    0.390E-09
DAV:   4    -0.362285095236E+02   -0.21646E-09   -0.14419E-12   360   0.970E-09    0.379E-09
DAV:   5    -0.362285095235E+02    0.10004E-09   -0.11798E-12   360   0.380E-09
  18 F= -.36228510E+02 E0= -.36228510E+02  d E =-.666775E-05
       N       E                     dE             d eps       ncg     rms          rms(c)
DAV:   1    -0.362285095237E+02   -0.12187E-09    0.13072E-12   360   0.127E-07    0.152E-08
DAV:   2    -0.362285095236E+02    0.11460E-09    0.13562E-12   360   0.291E-08    0.883E-09
DAV:   3    -0.362285095236E+02   -0.50932E-10    0.10514E-12   360   0.959E-09    0.198E-09
DAV:   4    -0.362285095237E+02   -0.71850E-10   -0.10794E-12   360   0.484E-09    0.188E-09
DAV:   5    -0.362285095237E+02    0.39108E-10   -0.56523E-12   360   0.191E-09
  19 F= -.36228510E+02 E0= -.36228510E+02  d E =-.666794E-05
       N       E                     dE             d eps       ncg     rms          rms(c)
DAV:   1    -0.362285560980E+02   -0.46574E-04   -0.15635E-03   900   0.397E-01    0.549E-02
DAV:   2    -0.362285166786E+02    0.39419E-04   -0.62163E-05   756   0.566E-02    0.271E-02
DAV:   3    -0.362285047197E+02    0.11959E-04   -0.26669E-05   808   0.357E-02    0.102E-02
DAV:   4    -0.362285035441E+02    0.11756E-05   -0.11300E-06   720   0.512E-03    0.594E-03
DAV:   5    -0.362285029257E+02    0.61843E-06   -0.65548E-08   832   0.253E-03    0.177E-03
DAV:   6    -0.362285028740E+02    0.51685E-07   -0.13778E-08   760   0.110E-03    0.573E-04
DAV:   7    -0.362285028506E+02    0.23362E-07   -0.22603E-09   460   0.306E-04    0.106E-04
DAV:   8    -0.362285028542E+02   -0.35661E-08   -0.15317E-10   360   0.923E-05
  20 F= -.36228503E+02 E0= -.36228503E+02  d E =0.152158E-08
