<?xml version="1.0" encoding="ISO-8859-1"?>
<modeling>
 <generator>
  <i name="program" type="string">vasp </i>
  <i name="version" type="string">5.3.5  </i>
  <i name="subversion" type="string">31Mar14 (build Nov 07 2014 11:36:17) complex                          parallel </i>
  <i name="platform" type="string">LinuxIFC </i>
  <i name="date" type="string">2015 10 15 </i>
  <i name="time" type="string">00:32:36 </i>
 </generator>
 <incar>
  <i type="string" name="PREC">accurate</i>
  <i type="int" name="IALGO">    38</i>
  <i type="logical" name="ADDGRID"> T  </i>
  <i type="int" name="NELMIN">     5</i>
  <i type="int" name="IBRION">     2</i>
  <i name="EDIFF">      0.00000001</i>
  <i name="EDIFFG">     -0.00000001</i>
  <i type="int" name="NSW">    20</i>
  <i type="int" name="ISIF">     3</i>
  <i name="ENCUT">    525.10770000</i>
  <i type="logical" name="LREAL"> F  </i>
  <i type="int" name="ISMEAR">     0</i>
  <i name="SIGMA">      0.01000000</i>
  <i type="logical" name="LWAVE"> F  </i>
  <i type="logical" name="LCHARG"> F  </i>
  <i type="string" name="GGA"> PS</i>
 </incar>
 <kpoints>
  <generation param="Gamma">
   <v type="int" name="divisions">       4        4        4 </v>
   <v name="usershift">      0.00000000       0.00000000       0.00000000 </v>
   <v name="genvec1">      0.25000000       0.00000000       0.00000000 </v>
   <v name="genvec2">      0.00000000       0.25000000       0.00000000 </v>
   <v name="genvec3">      0.00000000       0.00000000       0.25000000 </v>
   <v name="shift">      0.00000000       0.00000000       0.00000000 </v>
  </generation>
  <varray name="kpointlist" >
   <v>       0.00000000       0.00000000       0.00000000 </v>
   <v>       0.25000000       0.00000000       0.00000000 </v>
   <v>       0.50000000       0.00000000       0.00000000 </v>
   <v>       0.25000000       0.25000000       0.00000000 </v>
   <v>       0.50000000       0.25000000       0.00000000 </v>
   <v>       0.50000000       0.50000000       0.00000000 </v>
   <v>       0.25000000       0.25000000       0.25000000 </v>
   <v>       0.50000000       0.25000000       0.25000000 </v>
   <v>       0.50000000       0.50000000       0.25000000 </v>
   <v>       0.50000000       0.50000000       0.50000000 </v>
  </varray>
  <varray name="weights" >
   <v>       0.01562500 </v>
   <v>       0.09375000 </v>
   <v>       0.04687500 </v>
   <v>       0.18750000 </v>
   <v>       0.18750000 </v>
   <v>       0.04687500 </v>
   <v>       0.12500000 </v>
   <v>       0.18750000 </v>
   <v>       0.09375000 </v>
   <v>       0.01562500 </v>
  </varray>
 </kpoints>
 <parameters>
  <separator name="general" >
   <i type="string" name="SYSTEM">unknown system</i>
   <i type="logical" name="LCOMPAT"> F  </i>
  </separator>
  <separator name="electronic" >
   <i type="string" name="PREC">accura</i>
   <i name="ENMAX">    525.10770000</i>
   <i name="ENAUG">    758.78000000</i>
   <i name="EDIFF">      0.00000001</i>
   <i type="int" name="IALGO">    38</i>
   <i type="int" name="IWAVPR">    11</i>
   <i type="int" name="NBANDS">    36</i>
   <i name="NELECT">     56.00000000</i>
   <i type="int" name="TURBO">     0</i>
   <i type="int" name="IRESTART">     0</i>
   <i type="int" name="NREBOOT">     0</i>
   <i type="int" name="NMIN">     0</i>
   <i name="EREF">      0.00000000</i>
   <separator name="electronic smearing" >
    <i type="int" name="ISMEAR">     0</i>
    <i name="SIGMA">      0.01000000</i>
    <i name="KSPACING">      0.50000000</i>
    <i type="logical" name="KGAMMA"> T  </i>
   </separator>
   <separator name="electronic projectors" >
    <i type="logical" name="LREAL"> F  </i>
    <v name="ROPT">      0.00000000      0.00000000</v>
    <i type="int" name="LMAXPAW">  -100</i>
    <i type="int" name="LMAXMIX">     2</i>
    <i type="logical" name="NLSPLINE"> F  </i>
   </separator>
   <separator name="electronic startup" >
    <i type="int" name="ISTART">     0</i>
    <i type="int" name="ICHARG">     2</i>
    <i type="int" name="INIWAV">     1</i>
   </separator>
   <separator name="electronic spin" >
    <i type="int" name="ISPIN">     1</i>
    <i type="logical" name="LNONCOLLINEAR"> F  </i>
    <v name="MAGMOM">      1.00000000      1.00000000      1.00000000      1.00000000      1.00000000      1.00000000      1.00000000      1.00000000</v>
    <i name="NUPDOWN">     -1.00000000</i>
    <i type="logical" name="LSORBIT"> F  </i>
    <v name="SAXIS">      0.00000000      0.00000000      1.00000000</v>
    <i type="logical" name="LSPIRAL"> F  </i>
    <v name="QSPIRAL">      0.00000000      0.00000000      0.00000000</v>
    <i type="logical" name="LZEROZ"> F  </i>
   </separator>
   <separator name="electronic exchange-correlation" >
    <i type="logical" name="LASPH"> F  </i>
    <i type="logical" name="LMETAGGA"> F  </i>
   </separator>
   <separator name="electronic convergence" >
    <i type="int" name="NELM">    60</i>
    <i type="int" name="NELMDL">    -5</i>
    <i type="int" name="NELMIN">     5</i>
    <i name="ENINI">    525.10770000</i>
    <separator name="electronic convergence detail" >
     <i type="logical" name="LDIAG"> T  </i>
     <i type="logical" name="LSUBROT"> F  </i>
     <i name="WEIMIN">      0.00100000</i>
     <i name="EBREAK">      0.00000000</i>
     <i name="DEPER">      0.30000000</i>
     <i type="int" name="NRMM">     4</i>
     <i name="TIME">      0.40000000</i>
    </separator>
   </separator>
   <separator name="electronic mixer" >
    <i name="AMIX">      0.40000000</i>
    <i name="BMIX">      1.00000000</i>
    <i name="AMIN">      0.10000000</i>
    <i name="AMIX_MAG">      1.60000000</i>
    <i name="BMIX_MAG">      1.00000000</i>
    <separator name="electronic mixer details" >
     <i type="int" name="IMIX">     4</i>
     <i type="int" name="MAXMIX">   -45</i>
     <i name="WC">    100.00000000</i>
     <i type="int" name="INIMIX">     1</i>
     <i type="int" name="MIXPRE">     1</i>
     <i type="int" name="MREMOVE">     5</i>
    </separator>
   </separator>
   <separator name="electronic dipolcorrection" >
    <i type="logical" name="LDIPOL"> F  </i>
    <i type="logical" name="LMONO"> F  </i>
    <i type="int" name="IDIPOL">     0</i>
    <i name="EPSILON">      1.00000000</i>
    <v name="DIPOL">   -100.00000000   -100.00000000   -100.00000000</v>
    <i name="EFIELD">      0.00000000</i>
   </separator>
  </separator>
  <separator name="grids" >
   <i type="int" name="NGX">    40</i>
   <i type="int" name="NGY">    40</i>
   <i type="int" name="NGZ">    40</i>
   <i type="int" name="NGXF">    80</i>
   <i type="int" name="NGYF">    80</i>
   <i type="int" name="NGZF">    80</i>
   <i type="logical" name="ADDGRID"> T  </i>
  </separator>
  <separator name="ionic" >
   <i type="int" name="NSW">    20</i>
   <i type="int" name="IBRION">     2</i>
   <i type="int" name="ISIF">     3</i>
   <i name="PSTRESS">      0.00000000</i>
   <i name="EDIFFG">     -0.00000001</i>
   <i type="int" name="NFREE">     1</i>
   <i name="POTIM">      0.50000000</i>
   <i name="SMASS">     -3.00000000</i>
   <i name="SCALEE">      1.00000000</i>
  </separator>
  <separator name="ionic md" >
   <i name="TEBEG">      0.00010000</i>
   <i name="TEEND">      0.00010000</i>
   <i type="int" name="NBLOCK">     1</i>
   <i type="int" name="KBLOCK">    20</i>
   <i type="int" name="NPACO">   256</i>
   <i name="APACO">     16.00000000</i>
  </separator>
  <separator name="symmetry" >
   <i type="int" name="ISYM">     2</i>
   <i name="SYMPREC">      0.00001000</i>
  </separator>
  <separator name="dos" >
   <i type="logical" name="LORBIT"> F  </i>
   <v name="RWIGS">     -1.00000000     -1.00000000</v>
   <i type="int" name="NEDOS">   301</i>
   <i name="EMIN">     10.00000000</i>
   <i name="EMAX">    -10.00000000</i>
   <i name="EFERMI">      0.00000000</i>
  </separator>
  <separator name="writing" >
   <i type="int" name="NWRITE">     2</i>
   <i type="logical" name="LWAVE"> F  </i>
   <i type="logical" name="LCHARG"> F  </i>
   <i type="logical" name="LPARD"> F  </i>
   <i type="logical" name="LVTOT"> F  </i>
   <i type="logical" name="LVHAR"> F  </i>
   <i type="logical" name="LELF"> F  </i>
   <i type="logical" name="LOPTICS"> F  </i>
   <v name="STM">      0.00000000      0.00000000      0.00000000      0.00000000      0.00000000      0.00000000      0.00000000</v>
  </separator>
  <separator name="performance" >
   <i type="int" name="NPAR">     4</i>
   <i type="int" name="NSIM">     4</i>
   <i type="int" name="NBLK">    -1</i>
   <i type="logical" name="LPLANE"> T  </i>
   <i type="logical" name="LSCALAPACK"> T  </i>
   <i type="logical" name="LSCAAWARE"> F  </i>
   <i type="logical" name="LSCALU"> F  </i>
   <i type="logical" name="LASYNC"> F  </i>
   <i type="logical" name="LORBITALREAL"> F  </i>
  </separator>
  <separator name="miscellaneous" >
   <i type="int" name="IDIOT">     3</i>
   <i type="logical" name="LMUSIC"> F  </i>
   <v name="POMASS">     24.30500000     32.06600000</v>
   <v name="DARWINR">      0.00000000      0.00000000</v>
   <v name="DARWINV">      1.00000000      1.00000000</v>
   <i type="logical" name="LCORR"> T  </i>
  </separator>
  <i type="logical" name="GGA_COMPAT"> T  </i>
  <i type="logical" name="LBERRY"> F  </i>
  <i type="int" name="ICORELEVEL">     0</i>
  <i type="logical" name="LDAU"> F  </i>
  <i type="int" name="I_CONSTRAINED_M">     0</i>
  <separator name="electronic exchange-correlation" >
   <i type="string" name="GGA">PS</i>
   <i type="int" name="VOSKOWN">     0</i>
   <i type="logical" name="LHFCALC"> F  </i>
   <i type="string" name="PRECFOCK"></i>
   <i type="logical" name="LSYMGRAD"> F  </i>
   <i type="logical" name="LHFONE"> F  </i>
   <i type="logical" name="LRHFCALC"> F  </i>
   <i type="logical" name="LTHOMAS"> F  </i>
   <i type="logical" name="LMODELHF"> F  </i>
   <i name="ENCUT4O">     -1.00000000</i>
   <i type="int" name="EXXOEP">     0</i>
   <i type="int" name="FOURORBIT">     0</i>
   <i name="AEXX">      0.00000000</i>
   <i name="HFALPHA">      0.00000000</i>
   <i name="MCALPHA">      0.00000000</i>
   <i name="ALDAX">      1.00000000</i>
   <i name="AGGAX">      1.00000000</i>
   <i name="ALDAC">      1.00000000</i>
   <i name="AGGAC">      1.00000000</i>
   <i type="int" name="NKREDX">     1</i>
   <i type="int" name="NKREDY">     1</i>
   <i type="int" name="NKREDZ">     1</i>
   <i type="logical" name="SHIFTRED"> F  </i>
   <i type="logical" name="ODDONLY"> F  </i>
   <i type="logical" name="EVENONLY"> F  </i>
   <i type="int" name="LMAXFOCK">     0</i>
   <i type="int" name="NMAXFOCKAE">     0</i>
   <i type="logical" name="LFOCKAEDFT"> F  </i>
   <i name="HFSCREEN">      0.00000000</i>
   <i name="HFSCREENC">      0.00000000</i>
   <i type="int" name="NBANDSGWLOW">     0</i>
  </separator>
  <separator name="vdW DFT" >
   <i type="logical" name="LUSE_VDW"> F  </i>
   <i name="Zab_VDW">     -0.84910000</i>
   <i name="PARAM1">      0.12340000</i>
   <i name="PARAM2">      1.00000000</i>
   <i name="PARAM3">      0.00000000</i>
  </separator>
  <separator name="model GW" >
   <i type="int" name="MODEL_GW">     0</i>
   <i name="MODEL_EPS0">     10.43496402</i>
   <i name="MODEL_ALPHA">      1.00000000</i>
  </separator>
  <separator name="linear response parameters" >
   <i type="logical" name="LEPSILON"> F  </i>
   <i type="logical" name="LRPA"> F  </i>
   <i type="logical" name="LNABLA"> F  </i>
   <i type="logical" name="LVEL"> F  </i>
   <i type="int" name="KINTER">     0</i>
   <i name="CSHIFT">      0.10000000</i>
   <i name="OMEGAMAX">     -1.00000000</i>
   <i name="DEG_THRESHOLD">      0.00200000</i>
  </separator>
  <separator name="orbital magnetization" >
   <i type="logical" name="NUCIND"> F  </i>
   <v name="MAGPOS">      0.00000000      0.00000000      0.00000000</v>
   <i type="logical" name="LNICSALL"> T  </i>
   <i type="logical" name="ORBITALMAG"> F  </i>
   <i type="logical" name="LMAGBLOCH"> F  </i>
   <i type="logical" name="LCHIMAG"> F  </i>
   <i type="logical" name="LGAUGE"> T  </i>
   <i type="int" name="MAGATOM">     0</i>
   <v name="MAGDIPOL">      0.00000000      0.00000000      0.00000000</v>
   <v name="AVECCONST">      0.00000000      0.00000000      0.00000000</v>
  </separator>
  <separator name="response functions" >
   <i type="logical" name="LADDER"> F  </i>
   <i type="logical" name="LFXC"> F  </i>
   <i type="logical" name="LHARTREE"> T  </i>
   <i type="int" name="IBSE">     0</i>
   <i type="logical" name="LTCTE"> F  </i>
   <i type="logical" name="LTETE"> F  </i>
   <i type="logical" name="LTRIPLET"> F  </i>
   <i type="logical" name="LFXCEPS"> F  </i>
   <i type="logical" name="LFXHEG"> F  </i>
   <i type="logical" name="L2ORDER"> F  </i>
   <i type="logical" name="LUSEW"> F  </i>
   <i name="ENCUTGW">     -2.00000000</i>
   <i name="ENCUTGWSOFT">     -2.00000000</i>
   <i name="ENCUTLF">     -1.00000000</i>
   <i type="int" name="LMAXMP2">    -1</i>
   <i name="SCISSOR">      0.00000000</i>
   <i type="int" name="NOMEGA">     0</i>
   <i type="int" name="NOMEGAR">     0</i>
   <i type="int" name="NBANDSGW">    -1</i>
   <i type="int" name="NBANDSO">    -1</i>
   <i type="int" name="NBANDSV">    -1</i>
   <i type="int" name="NELM">     1</i>
   <i type="int" name="DIM">     3</i>
   <i type="int" name="ANTIRES">     0</i>
   <i name="OMEGAMAX">    -30.00000000</i>
   <i name="OMEGAMIN">    -30.00000000</i>
   <i name="OMEGATL">   -200.00000000</i>
   <i type="int" name="OMEGAGRID">     0</i>
   <i name="CSHIFT">     -0.10000000</i>
   <i type="logical" name="SELFENERGY"> F  </i>
   <i type="logical" name="LSPECTRAL"> F  </i>
   <i type="logical" name="ODDONLYGW"> F  </i>
   <i type="logical" name="EVENONLYGW"> F  </i>
   <i type="int" name="NKREDLFX">     1</i>
   <i type="int" name="NKREDLFY">     1</i>
   <i type="int" name="NKREDLFZ">     1</i>
   <i type="int" name="MAXMEM">  1800</i>
   <i type="int" name="TELESCOPE">     0</i>
   <i type="int" name="TAUPAR">     1</i>
  </separator>
  <separator name="External order field" >
   <i name="OFIELD_KAPPA">      0.00000000</i>
   <v name="OFIELD_K">      0.00000000      0.00000000      0.00000000</v>
   <i name="OFIELD_Q6_NEAR">      0.00000000</i>
   <i name="OFIELD_Q6_FAR">      0.00000000</i>
   <i name="OFIELD_A">      0.00000000</i>
  </separator>
 </parameters>
 <atominfo>
  <atoms>       8 </atoms>
  <types>       2 </types>
  <array name="atoms" >
   <dimension dim="1">ion</dimension>
   <field type="string">element</field>
   <field type="int">atomtype</field>
   <set>
    <rc><c>Mg</c><c>   1</c></rc>
    <rc><c>Mg</c><c>   1</c></rc>
    <rc><c>Mg</c><c>   1</c></rc>
    <rc><c>Mg</c><c>   1</c></rc>
    <rc><c>S </c><c>   2</c></rc>
    <rc><c>S </c><c>   2</c></rc>
    <rc><c>S </c><c>   2</c></rc>
    <rc><c>S </c><c>   2</c></rc>
   </set>
  </array>
  <array name="atomtypes" >
   <dimension dim="1">type</dimension>
   <field type="int">atomspertype</field>
   <field type="string">element</field>
   <field>mass</field>
   <field>valence</field>
   <field type="string">pseudopotential</field>
   <set>
    <rc><c>   4</c><c>Mg</c><c>     24.30500000</c><c>      8.00000000</c><c>  PAW_PBE Mg_pv 13Apr2007               </c></rc>
    <rc><c>   4</c><c>S </c><c>     32.06600000</c><c>      6.00000000</c><c>  PAW_PBE S 06Sep2000                   </c></rc>
   </set>
  </array>
 </atominfo>
 <structure name="initialpos" >
  <crystal>
   <varray name="basis" >
    <v>       5.18175129       0.00000000       0.00000000 </v>
    <v>       0.00000000       5.18175129       0.00000000 </v>
    <v>       0.00000000       0.00000000       5.18175129 </v>
   </varray>
   <i name="volume">    139.13285361 </i>
   <varray name="rec_basis" >
    <v>       0.19298495       0.00000000       0.00000000 </v>
    <v>       0.00000000       0.19298495       0.00000000 </v>
    <v>       0.00000000       0.00000000       0.19298495 </v>
   </varray>
  </crystal>
  <varray name="positions" >
   <v>       0.00000000       0.00000000       0.00000000 </v>
   <v>       0.00000000       0.50000000       0.50000000 </v>
   <v>       0.50000000       0.00000000       0.50000000 </v>
   <v>       0.50000000       0.50000000       0.00000000 </v>
   <v>       0.50000000       0.00000000       0.00000000 </v>
   <v>       0.50000000       0.50000000       0.50000000 </v>
   <v>       0.00000000       0.00000000       0.50000000 </v>
   <v>       0.00000000       0.50000000       0.00000000 </v>
  </varray>
 </structure>
 <calculation>
  <scstep>
   <time name="dav">    0.29    0.29</time>
   <time name="total">    0.34    0.35</time>
   <energy>
    <i name="alphaZ">    152.60682222 </i>
    <i name="ewald">  -3129.64793988 </i>
    <i name="hartreedc">  -1164.50494586 </i>
    <i name="XCdc">    159.38204407 </i>
    <i name="pawpsdc">   3462.71711756 </i>
    <i name="pawaedc">  -3919.80126840 </i>
    <i name="eentropy">     -0.00070524 </i>
    <i name="bandstr">   -424.57966244 </i>
    <i name="atom">   5321.70543053 </i>
    <i name="e_fr_energy">    457.87689257 </i>
    <i name="e_wo_entrp">    457.87759780 </i>
    <i name="e_0_energy">    457.87724518 </i>
   </energy>
  </scstep>
  <scstep>
   <time name="dav">    0.26    0.26</time>
   <time name="total">    0.26    0.26</time>
   <energy>
    <i name="e_fr_energy">     -4.07442823 </i>
    <i name="e_wo_entrp">     -4.07442823 </i>
    <i name="e_0_energy">     -4.07442823 </i>
   </energy>
  </scstep>
  <scstep>
   <time name="dav">    0.26    0.26</time>
   <time name="total">    0.26    0.26</time>
   <energy>
    <i name="e_fr_energy">    -36.66902250 </i>
    <i name="e_wo_entrp">    -36.66902250 </i>
    <i name="e_0_energy">    -36.66902250 </i>
   </energy>
  </scstep>
  <scstep>
   <time name="dav">    0.26    0.26</time>
   <time name="total">    0.26    0.27</time>
   <energy>
    <i name="e_fr_energy">    -37.68272279 </i>
    <i name="e_wo_entrp">    -37.68272279 </i>
    <i name="e_0_energy">    -37.68272279 </i>
   </energy>
  </scstep>
  <scstep>
   <time name="dav">    0.27    0.27</time>
   <time name="total">    0.33    0.33</time>
   <energy>
    <i name="e_fr_energy">    -37.71137527 </i>
    <i name="e_wo_entrp">    -37.71137527 </i>
    <i name="e_0_energy">    -37.71137527 </i>
   </energy>
  </scstep>
  <scstep>
   <time name="dav">    0.24    0.24</time>
   <time name="total">    0.35    0.35</time>
   <energy>
    <i name="e_fr_energy">    -36.39499332 </i>
    <i name="e_wo_entrp">    -36.39499332 </i>
    <i name="e_0_energy">    -36.39499332 </i>
   </energy>
  </scstep>
  <scstep>
   <time name="dav">    0.27    0.27</time>
   <time name="total">    0.38    0.38</time>
   <energy>
    <i name="e_fr_energy">    -36.23594932 </i>
    <i name="e_wo_entrp">    -36.23594932 </i>
    <i name="e_0_energy">    -36.23594932 </i>
   </energy>
  </scstep>
  <scstep>
   <time name="dav">    0.24    0.24</time>
   <time name="total">    0.35    0.35</time>
   <energy>
    <i name="e_fr_energy">    -36.22928736 </i>
    <i name="e_wo_entrp">    -36.22928736 </i>
    <i name="e_0_energy">    -36.22928736 </i>
   </energy>
  </scstep>
  <scstep>
   <time name="dav">    0.26    0.26</time>
   <time name="total">    0.37    0.37</time>
   <energy>
    <i name="e_fr_energy">    -36.22847920 </i>
    <i name="e_wo_entrp">    -36.22847920 </i>
    <i name="e_0_energy">    -36.22847920 </i>
   </energy>
  </scstep>
  <scstep>
   <time name="dav">    0.27    0.27</time>
   <time name="total">    0.38    0.38</time>
   <energy>
    <i name="e_fr_energy">    -36.22850782 </i>
    <i name="e_wo_entrp">    -36.22850782 </i>
    <i name="e_0_energy">    -36.22850782 </i>
   </energy>
  </scstep>
  <scstep>
   <time name="dav">    0.26    0.26</time>
   <time name="total">    0.37    0.37</time>
   <energy>
    <i name="e_fr_energy">    -36.22850354 </i>
    <i name="e_wo_entrp">    -36.22850354 </i>
    <i name="e_0_energy">    -36.22850354 </i>
   </energy>
  </scstep>
  <scstep>
   <time name="dav">    0.27    0.27</time>
   <time name="total">    0.38    0.38</time>
   <energy>
    <i name="e_fr_energy">    -36.22850292 </i>
    <i name="e_wo_entrp">    -36.22850292 </i>
    <i name="e_0_energy">    -36.22850292 </i>
   </energy>
  </scstep>
  <scstep>
   <time name="dav">    0.27    0.27</time>
   <time name="total">    0.37    0.38</time>
   <energy>
    <i name="e_fr_energy">    -36.22850287 </i>
    <i name="e_wo_entrp">    -36.22850287 </i>
    <i name="e_0_energy">    -36.22850287 </i>
   </energy>
  </scstep>
  <scstep>
   <time name="dav">    0.25    0.25</time>
   <time name="total">    0.36    0.36</time>
   <energy>
    <i name="e_fr_energy">    -36.22850282 </i>
    <i name="e_wo_entrp">    -36.22850282 </i>
    <i name="e_0_energy">    -36.22850282 </i>
   </energy>
  </scstep>
  <scstep>
   <time name="dav">    0.23    0.23</time>
   <time name="total">    0.34    0.34</time>
   <energy>
    <i name="e_fr_energy">    -36.22850286 </i>
    <i name="e_wo_entrp">    -36.22850286 </i>
    <i name="e_0_energy">    -36.22850286 </i>
   </energy>
  </scstep>
  <scstep>
   <time name="dav">    0.17    0.17</time>
   <time name="total">    0.21    0.22</time>
   <energy>
    <i name="alphaZ">    152.60682222 </i>
    <i name="ewald">  -3129.64793988 </i>
    <i name="hartreedc">  -1155.45136332 </i>
    <i name="XCdc">    161.40316951 </i>
    <i name="pawpsdc">   4677.25865438 </i>
    <i name="pawaedc">  -5130.23829195 </i>
    <i name="eentropy">      0.00000000 </i>
    <i name="bandstr">   -933.86498435 </i>
    <i name="atom">   5321.70543053 </i>
    <i name="e_fr_energy">    -36.22850286 </i>
    <i name="e_wo_entrp">    -36.22850286 </i>
    <i name="e_0_energy">    -36.22850286 </i>
   </energy>
  </scstep>
  <structure>
   <crystal>
    <varray name="basis" >
     <v>       5.18175129       0.00000000       0.00000000 </v>
     <v>       0.00000000       5.18175129       0.00000000 </v>
     <v>       0.00000000       0.00000000       5.18175129 </v>
    </varray>
    <i name="volume">    139.13285361 </i>
    <varray name="rec_basis" >
     <v>       0.19298495       0.00000000       0.00000000 </v>
     <v>       0.00000000       0.19298495       0.00000000 </v>
     <v>       0.00000000       0.00000000       0.19298495 </v>
    </varray>
   </crystal>
   <varray name="positions" >
    <v>       0.00000000       0.00000000       0.00000000 </v>
    <v>       0.00000000       0.50000000       0.50000000 </v>
    <v>       0.50000000       0.00000000       0.50000000 </v>
    <v>       0.50000000       0.50000000       0.00000000 </v>
    <v>       0.50000000       0.00000000       0.00000000 </v>
    <v>       0.50000000       0.50000000       0.50000000 </v>
    <v>       0.00000000       0.00000000       0.50000000 </v>
    <v>       0.00000000       0.50000000       0.00000000 </v>
   </varray>
  </structure>
  <varray name="forces" >
   <v>       0.00000000       0.00000000       0.00000000 </v>
   <v>       0.00000000       0.00000000       0.00000000 </v>
   <v>       0.00000000       0.00000000       0.00000000 </v>
   <v>       0.00000000       0.00000000       0.00000000 </v>
   <v>       0.00000000       0.00000000       0.00000000 </v>
   <v>       0.00000000       0.00000000       0.00000000 </v>
   <v>       0.00000000       0.00000000       0.00000000 </v>
   <v>       0.00000000       0.00000000       0.00000000 </v>
  </varray>
  <varray name="stress" >
   <v>      -0.34544780       0.00000000       0.00000000 </v>
   <v>       0.00000000      -0.34544780       0.00000000 </v>
   <v>       0.00000000       0.00000000      -0.34544780 </v>
  </varray>
  <energy>
   <i name="e_fr_energy">    -36.22850286 </i>
   <i name="e_wo_entrp">    -36.22850286 </i>
   <i name="e_0_energy">      0.00000000 </i>
  </energy>
  <time name="totalsc">    6.38    6.42</time>
 </calculation>
 <calculation>
  <scstep>
   <time name="dav">    0.28    0.28</time>
   <time name="total">    0.39    0.39</time>
   <energy>
    <i name="alphaZ">    152.68967272 </i>
    <i name="ewald">  -3130.21420107 </i>
    <i name="hartreedc">  -1155.66044385 </i>
    <i name="XCdc">    161.44136133 </i>
    <i name="pawpsdc">   4677.25866891 </i>
    <i name="pawaedc">  -5130.23830250 </i>
    <i name="eentropy">      0.00000000 </i>
    <i name="bandstr">   -933.21077076 </i>
    <i name="atom">   5321.70543053 </i>
    <i name="e_fr_energy">    -36.22858471 </i>
    <i name="e_wo_entrp">    -36.22858471 </i>
    <i name="e_0_energy">    -36.22858471 </i>
   </energy>
  </scstep>
  <scstep>
   <time name="dav">    0.24    0.24</time>
   <time name="total">    0.35    0.35</time>
   <energy>
    <i name="e_fr_energy">    -36.22852597 </i>
    <i name="e_wo_entrp">    -36.22852597 </i>
    <i name="e_0_energy">    -36.22852597 </i>
   </energy>
  </scstep>
  <scstep>
   <time name="dav">    0.26    0.26</time>
   <time name="total">    0.36    0.37</time>
   <energy>
    <i name="e_fr_energy">    -36.22850932 </i>
    <i name="e_wo_entrp">    -36.22850932 </i>
    <i name="e_0_energy">    -36.22850932 </i>
   </energy>
  </scstep>
  <scstep>
   <time name="dav">    0.24    0.24</time>
   <time name="total">    0.35    0.35</time>
   <energy>
    <i name="e_fr_energy">    -36.22850910 </i>
    <i name="e_wo_entrp">    -36.22850910 </i>
    <i name="e_0_energy">    -36.22850910 </i>
   </energy>
  </scstep>
  <scstep>
   <time name="dav">    0.27    0.27</time>
   <time name="total">    0.37    0.38</time>
   <energy>
    <i name="e_fr_energy">    -36.22850916 </i>
    <i name="e_wo_entrp">    -36.22850916 </i>
    <i name="e_0_energy">    -36.22850916 </i>
   </energy>
  </scstep>
  <scstep>
   <time name="dav">    0.25    0.25</time>
   <time name="total">    0.36    0.36</time>
   <energy>
    <i name="e_fr_energy">    -36.22850920 </i>
    <i name="e_wo_entrp">    -36.22850920 </i>
    <i name="e_0_energy">    -36.22850920 </i>
   </energy>
  </scstep>
  <scstep>
   <time name="dav">    0.21    0.21</time>
   <time name="total">    0.31    0.32</time>
   <energy>
    <i name="e_fr_energy">    -36.22850923 </i>
    <i name="e_wo_entrp">    -36.22850923 </i>
    <i name="e_0_energy">    -36.22850923 </i>
   </energy>
  </scstep>
  <scstep>
   <time name="dav">    0.16    0.16</time>
   <time name="total">    0.21    0.21</time>
   <energy>
    <i name="alphaZ">    152.68967272 </i>
    <i name="ewald">  -3130.21420107 </i>
    <i name="hartreedc">  -1155.21496140 </i>
    <i name="XCdc">    161.41147462 </i>
    <i name="pawpsdc">   4678.73004628 </i>
    <i name="pawaedc">  -5131.71577077 </i>
    <i name="eentropy">      0.00000000 </i>
    <i name="bandstr">   -933.62020012 </i>
    <i name="atom">   5321.70543053 </i>
    <i name="e_fr_energy">    -36.22850922 </i>
    <i name="e_wo_entrp">    -36.22850922 </i>
    <i name="e_0_energy">    -36.22850922 </i>
   </energy>
  </scstep>
  <structure>
   <crystal>
    <varray name="basis" >
     <v>       5.18081390       0.00000000       0.00000000 </v>
     <v>       0.00000000       5.18081390       0.00000000 </v>
     <v>       0.00000000       0.00000000       5.18081390 </v>
    </varray>
    <i name="volume">    139.05735914 </i>
    <varray name="rec_basis" >
     <v>       0.19301987       0.00000000       0.00000000 </v>
     <v>       0.00000000       0.19301987       0.00000000 </v>
     <v>       0.00000000       0.00000000       0.19301987 </v>
    </varray>
   </crystal>
   <varray name="positions" >
    <v>       0.00000000       0.00000000       0.00000000 </v>
    <v>       0.00000000       0.50000000       0.50000000 </v>
    <v>       0.50000000       0.00000000       0.50000000 </v>
    <v>       0.50000000       0.50000000       0.00000000 </v>
    <v>       0.50000000       0.00000000       0.00000000 </v>
    <v>       0.50000000       0.50000000       0.50000000 </v>
    <v>       0.00000000       0.00000000       0.50000000 </v>
    <v>       0.00000000       0.50000000       0.00000000 </v>
   </varray>
  </structure>
  <varray name="forces" >
   <v>       0.00000000       0.00000000       0.00000000 </v>
   <v>       0.00000000       0.00000000       0.00000000 </v>
   <v>       0.00000000       0.00000000       0.00000000 </v>
   <v>       0.00000000       0.00000000       0.00000000 </v>
   <v>       0.00000000       0.00000000       0.00000000 </v>
   <v>       0.00000000       0.00000000       0.00000000 </v>
   <v>       0.00000000       0.00000000       0.00000000 </v>
   <v>       0.00000000       0.00000000       0.00000000 </v>
  </varray>
  <varray name="stress" >
   <v>       0.07199377       0.00000000       0.00000000 </v>
   <v>       0.00000000       0.07199377       0.00000000 </v>
   <v>       0.00000000       0.00000000       0.07199377 </v>
  </varray>
  <energy>
   <i name="e_fr_energy">    -36.22850922 </i>
   <i name="e_wo_entrp">    -36.22850922 </i>
   <i name="e_0_energy">      0.00000000 </i>
  </energy>
  <time name="totalsc">    3.77    3.79</time>
 </calculation>
 <calculation>
  <scstep>
   <time name="dav">    0.28    0.28</time>
   <time name="total">    0.39    0.39</time>
   <energy>
    <i name="alphaZ">    152.67509905 </i>
    <i name="ewald">  -3130.11460879 </i>
    <i name="hartreedc">  -1155.17819863 </i>
    <i name="XCdc">    161.40475898 </i>
    <i name="pawpsdc">   4678.73360769 </i>
    <i name="pawaedc">  -5131.71933567 </i>
    <i name="eentropy">      0.00000000 </i>
    <i name="bandstr">   -933.73526518 </i>
    <i name="atom">   5321.70543053 </i>
    <i name="e_fr_energy">    -36.22851202 </i>
    <i name="e_wo_entrp">    -36.22851202 </i>
    <i name="e_0_energy">    -36.22851202 </i>
   </energy>
  </scstep>
  <scstep>
   <time name="dav">    0.25    0.25</time>
   <time name="total">    0.35    0.36</time>
   <energy>
    <i name="e_fr_energy">    -36.22851035 </i>
    <i name="e_wo_entrp">    -36.22851035 </i>
    <i name="e_0_energy">    -36.22851035 </i>
   </energy>
  </scstep>
  <scstep>
   <time name="dav">    0.26    0.26</time>
   <time name="total">    0.37    0.37</time>
   <energy>
    <i name="e_fr_energy">    -36.22850977 </i>
    <i name="e_wo_entrp">    -36.22850977 </i>
    <i name="e_0_energy">    -36.22850977 </i>
   </energy>
  </scstep>
  <scstep>
   <time name="dav">    0.24    0.24</time>
   <time name="total">    0.35    0.35</time>
   <energy>
    <i name="e_fr_energy">    -36.22850963 </i>
    <i name="e_wo_entrp">    -36.22850963 </i>
    <i name="e_0_energy">    -36.22850963 </i>
   </energy>
  </scstep>
  <scstep>
   <time name="dav">    0.22    0.22</time>
   <time name="total">    0.33    0.33</time>
   <energy>
    <i name="e_fr_energy">    -36.22850954 </i>
    <i name="e_wo_entrp">    -36.22850954 </i>
    <i name="e_0_energy">    -36.22850954 </i>
   </energy>
  </scstep>
  <scstep>
   <time name="dav">    0.16    0.16</time>
   <time name="total">    0.27    0.27</time>
   <energy>
    <i name="e_fr_energy">    -36.22850953 </i>
    <i name="e_wo_entrp">    -36.22850953 </i>
    <i name="e_0_energy">    -36.22850953 </i>
   </energy>
  </scstep>
  <scstep>
   <time name="dav">    0.16    0.16</time>
   <time name="total">    0.21    0.21</time>
   <energy>
    <i name="alphaZ">    152.67509905 </i>
    <i name="ewald">  -3130.11460879 </i>
    <i name="hartreedc">  -1155.25651248 </i>
    <i name="XCdc">    161.41001362 </i>
    <i name="pawpsdc">   4678.48332966 </i>
    <i name="pawaedc">  -5131.46796636 </i>
    <i name="eentropy">      0.00000000 </i>
    <i name="bandstr">   -933.66329474 </i>
    <i name="atom">   5321.70543053 </i>
    <i name="e_fr_energy">    -36.22850952 </i>
    <i name="e_wo_entrp">    -36.22850952 </i>
    <i name="e_0_energy">    -36.22850952 </i>
   </energy>
  </scstep>
  <structure>
   <crystal>
    <varray name="basis" >
     <v>       5.18097874       0.00000000       0.00000000 </v>
     <v>       0.00000000       5.18097874       0.00000000 </v>
     <v>       0.00000000       0.00000000       5.18097874 </v>
    </varray>
    <i name="volume">    139.07063292 </i>
    <varray name="rec_basis" >
     <v>       0.19301372       0.00000000       0.00000000 </v>
     <v>       0.00000000       0.19301372       0.00000000 </v>
     <v>       0.00000000       0.00000000       0.19301372 </v>
    </varray>
   </crystal>
   <varray name="positions" >
    <v>       0.00000000       0.00000000       0.00000000 </v>
    <v>       0.00000000       0.50000000       0.50000000 </v>
    <v>       0.50000000       0.00000000       0.50000000 </v>
    <v>       0.50000000       0.50000000       0.00000000 </v>
    <v>       0.50000000       0.00000000       0.00000000 </v>
    <v>       0.50000000       0.50000000       0.50000000 </v>
    <v>       0.00000000       0.00000000       0.50000000 </v>
    <v>       0.00000000       0.50000000       0.00000000 </v>
   </varray>
  </structure>
  <varray name="forces" >
   <v>       0.00000000       0.00000000       0.00000000 </v>
   <v>       0.00000000       0.00000000       0.00000000 </v>
   <v>       0.00000000       0.00000000       0.00000000 </v>
   <v>       0.00000000       0.00000000       0.00000000 </v>
   <v>       0.00000000       0.00000000       0.00000000 </v>
   <v>       0.00000000       0.00000000       0.00000000 </v>
   <v>       0.00000000       0.00000000       0.00000000 </v>
   <v>       0.00000000       0.00000000       0.00000000 </v>
  </varray>
  <varray name="stress" >
   <v>      -0.00114321       0.00000000       0.00000000 </v>
   <v>       0.00000000      -0.00114321       0.00000000 </v>
   <v>       0.00000000       0.00000000      -0.00114321 </v>
  </varray>
  <energy>
   <i name="e_fr_energy">    -36.22850952 </i>
   <i name="e_wo_entrp">    -36.22850952 </i>
   <i name="e_0_energy">      0.00000000 </i>
  </energy>
  <time name="totalsc">    3.35    3.37</time>
 </calculation>
 <calculation>
  <scstep>
   <time name="dav">    0.23    0.24</time>
   <time name="total">    0.34    0.35</time>
   <energy>
    <i name="alphaZ">    152.67532686 </i>
    <i name="ewald">  -3130.11616563 </i>
    <i name="hartreedc">  -1155.25707335 </i>
    <i name="XCdc">    161.41011787 </i>
    <i name="pawpsdc">   4678.47984367 </i>
    <i name="pawaedc">  -5131.46452556 </i>
    <i name="eentropy">      0.00000000 </i>
    <i name="bandstr">   -933.66146391 </i>
    <i name="atom">   5321.70543053 </i>
    <i name="e_fr_energy">    -36.22850952 </i>
    <i name="e_wo_entrp">    -36.22850952 </i>
    <i name="e_0_energy">    -36.22850952 </i>
   </energy>
  </scstep>
  <scstep>
   <time name="dav">    0.16    0.16</time>
   <time name="total">    0.26    0.27</time>
   <energy>
    <i name="e_fr_energy">    -36.22850952 </i>
    <i name="e_wo_entrp">    -36.22850952 </i>
    <i name="e_0_energy">    -36.22850952 </i>
   </energy>
  </scstep>
  <scstep>
   <time name="dav">    0.16    0.16</time>
   <time name="total">    0.27    0.27</time>
   <energy>
    <i name="e_fr_energy">    -36.22850952 </i>
    <i name="e_wo_entrp">    -36.22850952 </i>
    <i name="e_0_energy">    -36.22850952 </i>
   </energy>
  </scstep>
  <scstep>
   <time name="dav">    0.16    0.16</time>
   <time name="total">    0.27    0.27</time>
   <energy>
    <i name="e_fr_energy">    -36.22850952 </i>
    <i name="e_wo_entrp">    -36.22850952 </i>
    <i name="e_0_energy">    -36.22850952 </i>
   </energy>
  </scstep>
  <scstep>
   <time name="dav">    0.16    0.16</time>
   <time name="total">    0.21    0.21</time>
   <energy>
    <i name="alphaZ">    152.67532686 </i>
    <i name="ewald">  -3130.11616563 </i>
    <i name="hartreedc">  -1155.25593105 </i>
    <i name="XCdc">    161.41004140 </i>
    <i name="pawpsdc">   4678.48573581 </i>
    <i name="pawaedc">  -5131.47043634 </i>
    <i name="eentropy">      0.00000000 </i>
    <i name="bandstr">   -933.66251110 </i>
    <i name="atom">   5321.70543053 </i>
    <i name="e_fr_energy">    -36.22850952 </i>
    <i name="e_wo_entrp">    -36.22850952 </i>
    <i name="e_0_energy">    -36.22850952 </i>
   </energy>
  </scstep>
  <structure>
   <crystal>
    <varray name="basis" >
     <v>       5.18097617       0.00000000       0.00000000 </v>
     <v>       0.00000000       5.18097617       0.00000000 </v>
     <v>       0.00000000       0.00000000       5.18097617 </v>
    </varray>
    <i name="volume">    139.07042541 </i>
    <varray name="rec_basis" >
     <v>       0.19301382       0.00000000       0.00000000 </v>
     <v>       0.00000000       0.19301382       0.00000000 </v>
     <v>       0.00000000       0.00000000       0.19301382 </v>
    </varray>
   </crystal>
   <varray name="positions" >
    <v>       0.00000000       0.00000000       0.00000000 </v>
    <v>       0.00000000       0.50000000       0.50000000 </v>
    <v>       0.50000000       0.00000000       0.50000000 </v>
    <v>       0.50000000       0.50000000       0.00000000 </v>
    <v>       0.50000000       0.00000000       0.00000000 </v>
    <v>       0.50000000       0.50000000       0.50000000 </v>
    <v>       0.00000000       0.00000000       0.50000000 </v>
    <v>       0.00000000       0.50000000       0.00000000 </v>
   </varray>
  </structure>
  <varray name="forces" >
   <v>       0.00000000       0.00000000       0.00000000 </v>
   <v>       0.00000000       0.00000000       0.00000000 </v>
   <v>       0.00000000       0.00000000       0.00000000 </v>
   <v>       0.00000000       0.00000000       0.00000000 </v>
   <v>       0.00000000       0.00000000       0.00000000 </v>
   <v>       0.00000000       0.00000000       0.00000000 </v>
   <v>       0.00000000       0.00000000       0.00000000 </v>
   <v>       0.00000000       0.00000000       0.00000000 </v>
  </varray>
  <varray name="stress" >
   <v>      -0.00158491       0.00000000       0.00000000 </v>
   <v>       0.00000000      -0.00158491       0.00000000 </v>
   <v>       0.00000000       0.00000000      -0.00158491 </v>
  </varray>
  <energy>
   <i name="e_fr_energy">    -36.22850952 </i>
   <i name="e_wo_entrp">    -36.22850952 </i>
   <i name="e_0_energy">      0.00000000 </i>
  </energy>
  <time name="totalsc">    2.42    2.44</time>
 </calculation>
 <calculation>
  <scstep>
   <time name="dav">    0.28    0.28</time>
   <time name="total">    0.39    0.39</time>
   <energy>
    <i name="alphaZ">    152.68249956 </i>
    <i name="ewald">  -3130.16518258 </i>
    <i name="hartreedc">  -1155.27398562 </i>
    <i name="XCdc">    161.41334410 </i>
    <i name="pawpsdc">   4678.48550667 </i>
    <i name="pawaedc">  -5131.47020723 </i>
    <i name="eentropy">      0.00000000 </i>
    <i name="bandstr">   -933.60591538 </i>
    <i name="atom">   5321.70543053 </i>
    <i name="e_fr_energy">    -36.22850995 </i>
    <i name="e_wo_entrp">    -36.22850995 </i>
    <i name="e_0_energy">    -36.22850995 </i>
   </energy>
  </scstep>
  <scstep>
   <time name="dav">    0.24    0.24</time>
   <time name="total">    0.35    0.35</time>
   <energy>
    <i name="e_fr_energy">    -36.22850945 </i>
    <i name="e_wo_entrp">    -36.22850945 </i>
    <i name="e_0_energy">    -36.22850945 </i>
   </energy>
  </scstep>
  <scstep>
   <time name="dav">    0.26    0.26</time>
   <time name="total">    0.37    0.37</time>
   <energy>
    <i name="e_fr_energy">    -36.22850935 </i>
    <i name="e_wo_entrp">    -36.22850935 </i>
    <i name="e_0_energy">    -36.22850935 </i>
   </energy>
  </scstep>
  <scstep>
   <time name="dav">    0.22    0.22</time>
   <time name="total">    0.33    0.33</time>
   <energy>
    <i name="e_fr_energy">    -36.22850940 </i>
    <i name="e_wo_entrp">    -36.22850940 </i>
    <i name="e_0_energy">    -36.22850940 </i>
   </energy>
  </scstep>
  <scstep>
   <time name="dav">    0.16    0.16</time>
   <time name="total">    0.27    0.27</time>
   <energy>
    <i name="e_fr_energy">    -36.22850944 </i>
    <i name="e_wo_entrp">    -36.22850944 </i>
    <i name="e_0_energy">    -36.22850944 </i>
   </energy>
  </scstep>
  <scstep>
   <time name="dav">    0.16    0.16</time>
   <time name="total">    0.21    0.21</time>
   <energy>
    <i name="alphaZ">    152.68249956 </i>
    <i name="ewald">  -3130.16518258 </i>
    <i name="hartreedc">  -1155.23546980 </i>
    <i name="XCdc">    161.41075810 </i>
    <i name="pawpsdc">   4678.61454602 </i>
    <i name="pawaedc">  -5131.59969804 </i>
    <i name="eentropy">      0.00000000 </i>
    <i name="bandstr">   -933.64139323 </i>
    <i name="atom">   5321.70543053 </i>
    <i name="e_fr_energy">    -36.22850944 </i>
    <i name="e_wo_entrp">    -36.22850944 </i>
    <i name="e_0_energy">    -36.22850944 </i>
   </energy>
  </scstep>
  <structure>
   <crystal>
    <varray name="basis" >
     <v>       5.18089503       0.00000000       0.00000000 </v>
     <v>       0.00000000       5.18089503       0.00000000 </v>
     <v>       0.00000000       0.00000000       5.18089503 </v>
    </varray>
    <i name="volume">    139.06389217 </i>
    <varray name="rec_basis" >
     <v>       0.19301684       0.00000000       0.00000000 </v>
     <v>       0.00000000       0.19301684       0.00000000 </v>
     <v>       0.00000000       0.00000000       0.19301684 </v>
    </varray>
   </crystal>
   <varray name="positions" >
    <v>       0.00000000       0.00000000       0.00000000 </v>
    <v>       0.00000000       0.50000000       0.50000000 </v>
    <v>       0.50000000       0.00000000       0.50000000 </v>
    <v>       0.50000000       0.50000000       0.00000000 </v>
    <v>       0.50000000       0.00000000       0.00000000 </v>
    <v>       0.50000000       0.50000000       0.50000000 </v>
    <v>       0.00000000       0.00000000       0.50000000 </v>
    <v>       0.00000000       0.50000000       0.00000000 </v>
   </varray>
  </structure>
  <varray name="forces" >
   <v>       0.00000000       0.00000000       0.00000000 </v>
   <v>       0.00000000       0.00000000       0.00000000 </v>
   <v>       0.00000000       0.00000000       0.00000000 </v>
   <v>       0.00000000       0.00000000       0.00000000 </v>
   <v>       0.00000000       0.00000000       0.00000000 </v>
   <v>       0.00000000       0.00000000       0.00000000 </v>
   <v>       0.00000000       0.00000000       0.00000000 </v>
   <v>       0.00000000       0.00000000       0.00000000 </v>
  </varray>
  <varray name="stress" >
   <v>       0.03692605       0.00000000       0.00000000 </v>
   <v>       0.00000000       0.03692605       0.00000000 </v>
   <v>       0.00000000       0.00000000       0.03692605 </v>
  </varray>
  <energy>
   <i name="e_fr_energy">    -36.22850944 </i>
   <i name="e_wo_entrp">    -36.22850944 </i>
   <i name="e_0_energy">      0.00000000 </i>
  </energy>
  <time name="totalsc">    2.98    3.00</time>
 </calculation>
 <calculation>
  <scstep>
   <time name="dav">    0.28    0.28</time>
   <time name="total">    0.39    0.39</time>
   <energy>
    <i name="alphaZ">    152.67562206 </i>
    <i name="ewald">  -3130.11818297 </i>
    <i name="hartreedc">  -1155.21799096 </i>
    <i name="XCdc">    161.40758352 </i>
    <i name="pawpsdc">   4678.60657158 </i>
    <i name="pawaedc">  -5131.59184546 </i>
    <i name="eentropy">      0.00000000 </i>
    <i name="bandstr">   -933.69569841 </i>
    <i name="atom">   5321.70543053 </i>
    <i name="e_fr_energy">    -36.22851011 </i>
    <i name="e_wo_entrp">    -36.22851011 </i>
    <i name="e_0_energy">    -36.22851011 </i>
   </energy>
  </scstep>
  <scstep>
   <time name="dav">    0.24    0.25</time>
   <time name="total">    0.35    0.36</time>
   <energy>
    <i name="e_fr_energy">    -36.22850977 </i>
    <i name="e_wo_entrp">    -36.22850977 </i>
    <i name="e_0_energy">    -36.22850977 </i>
   </energy>
  </scstep>
  <scstep>
   <time name="dav">    0.26    0.26</time>
   <time name="total">    0.37    0.37</time>
   <energy>
    <i name="e_fr_energy">    -36.22850963 </i>
    <i name="e_wo_entrp">    -36.22850963 </i>
    <i name="e_0_energy">    -36.22850963 </i>
   </energy>
  </scstep>
  <scstep>
   <time name="dav">    0.22    0.22</time>
   <time name="total">    0.33    0.33</time>
   <energy>
    <i name="e_fr_energy">    -36.22850957 </i>
    <i name="e_wo_entrp">    -36.22850957 </i>
    <i name="e_0_energy">    -36.22850957 </i>
   </energy>
  </scstep>
  <scstep>
   <time name="dav">    0.16    0.16</time>
   <time name="total">    0.27    0.27</time>
   <energy>
    <i name="e_fr_energy">    -36.22850953 </i>
    <i name="e_wo_entrp">    -36.22850953 </i>
    <i name="e_0_energy">    -36.22850953 </i>
   </energy>
  </scstep>
  <scstep>
   <time name="dav">    0.16    0.16</time>
   <time name="total">    0.21    0.21</time>
   <energy>
    <i name="alphaZ">    152.67562206 </i>
    <i name="ewald">  -3130.11818297 </i>
    <i name="hartreedc">  -1155.25493978 </i>
    <i name="XCdc">    161.41006326 </i>
    <i name="pawpsdc">   4678.48239907 </i>
    <i name="pawaedc">  -5131.46718126 </i>
    <i name="eentropy">      0.00000000 </i>
    <i name="bandstr">   -933.66172042 </i>
    <i name="atom">   5321.70543053 </i>
    <i name="e_fr_energy">    -36.22850952 </i>
    <i name="e_wo_entrp">    -36.22850952 </i>
    <i name="e_0_energy">    -36.22850952 </i>
   </energy>
  </scstep>
  <structure>
   <crystal>
    <varray name="basis" >
     <v>       5.18097283       0.00000000       0.00000000 </v>
     <v>       0.00000000       5.18097283       0.00000000 </v>
     <v>       0.00000000       0.00000000       5.18097283 </v>
    </varray>
    <i name="volume">    139.07015652 </i>
    <varray name="rec_basis" >
     <v>       0.19301394       0.00000000       0.00000000 </v>
     <v>       0.00000000       0.19301394       0.00000000 </v>
     <v>       0.00000000       0.00000000       0.19301394 </v>
    </varray>
   </crystal>
   <varray name="positions" >
    <v>       0.00000000       0.00000000       0.00000000 </v>
    <v>       0.00000000       0.50000000       0.50000000 </v>
    <v>       0.50000000       0.00000000       0.50000000 </v>
    <v>       0.50000000       0.50000000       0.00000000 </v>
    <v>       0.50000000       0.00000000       0.00000000 </v>
    <v>       0.50000000       0.50000000       0.50000000 </v>
    <v>       0.00000000       0.00000000       0.50000000 </v>
    <v>       0.00000000       0.50000000       0.00000000 </v>
   </varray>
  </structure>
  <varray name="forces" >
   <v>       0.00000000       0.00000000       0.00000000 </v>
   <v>       0.00000000       0.00000000       0.00000000 </v>
   <v>       0.00000000       0.00000000       0.00000000 </v>
   <v>       0.00000000       0.00000000       0.00000000 </v>
   <v>       0.00000000       0.00000000       0.00000000 </v>
   <v>       0.00000000       0.00000000       0.00000000 </v>
   <v>       0.00000000       0.00000000       0.00000000 </v>
   <v>       0.00000000       0.00000000       0.00000000 </v>
  </varray>
  <varray name="stress" >
   <v>      -0.00086124       0.00000000       0.00000000 </v>
   <v>       0.00000000      -0.00086124       0.00000000 </v>
   <v>       0.00000000       0.00000000      -0.00086124 </v>
  </varray>
  <energy>
   <i name="e_fr_energy">    -36.22850952 </i>
   <i name="e_wo_entrp">    -36.22850952 </i>
   <i name="e_0_energy">      0.00000000 </i>
  </energy>
  <time name="totalsc">    2.98    3.00</time>
 </calculation>
 <calculation>
  <scstep>
   <time name="dav">    0.29    0.29</time>
   <time name="total">    0.39    0.40</time>
   <energy>
    <i name="alphaZ">    152.67596536 </i>
    <i name="ewald">  -3130.12052905 </i>
    <i name="hartreedc">  -1155.25593307 </i>
    <i name="XCdc">    161.41022647 </i>
    <i name="pawpsdc">   4678.49013029 </i>
    <i name="pawaedc">  -5131.47479509 </i>
    <i name="eentropy">      0.00000000 </i>
    <i name="bandstr">   -933.65900496 </i>
    <i name="atom">   5321.70543053 </i>
    <i name="e_fr_energy">    -36.22850952 </i>
    <i name="e_wo_entrp">    -36.22850952 </i>
    <i name="e_0_energy">    -36.22850952 </i>
   </energy>
  </scstep>
  <scstep>
   <time name="dav">    0.16    0.16</time>
   <time name="total">    0.27    0.27</time>
   <energy>
    <i name="e_fr_energy">    -36.22850952 </i>
    <i name="e_wo_entrp">    -36.22850952 </i>
    <i name="e_0_energy">    -36.22850952 </i>
   </energy>
  </scstep>
  <scstep>
   <time name="dav">    0.16    0.16</time>
   <time name="total">    0.27    0.27</time>
   <energy>
    <i name="e_fr_energy">    -36.22850952 </i>
    <i name="e_wo_entrp">    -36.22850952 </i>
    <i name="e_0_energy">    -36.22850952 </i>
   </energy>
  </scstep>
  <scstep>
   <time name="dav">    0.16    0.16</time>
   <time name="total">    0.27    0.27</time>
   <energy>
    <i name="e_fr_energy">    -36.22850952 </i>
    <i name="e_wo_entrp">    -36.22850952 </i>
    <i name="e_0_energy">    -36.22850952 </i>
   </energy>
  </scstep>
  <scstep>
   <time name="dav">    0.16    0.16</time>
   <time name="total">    0.21    0.21</time>
   <energy>
    <i name="alphaZ">    152.67596536 </i>
    <i name="ewald">  -3130.12052905 </i>
    <i name="hartreedc">  -1155.25408473 </i>
    <i name="XCdc">    161.41010053 </i>
    <i name="pawpsdc">   4678.49645908 </i>
    <i name="pawaedc">  -5131.48111100 </i>
    <i name="eentropy">      0.00000000 </i>
    <i name="bandstr">   -933.66074023 </i>
    <i name="atom">   5321.70543053 </i>
    <i name="e_fr_energy">    -36.22850952 </i>
    <i name="e_wo_entrp">    -36.22850952 </i>
    <i name="e_0_energy">    -36.22850952 </i>
   </energy>
  </scstep>
  <structure>
   <crystal>
    <varray name="basis" >
     <v>       5.18096894       0.00000000       0.00000000 </v>
     <v>       0.00000000       5.18096894       0.00000000 </v>
     <v>       0.00000000       0.00000000       5.18096894 </v>
    </varray>
    <i name="volume">    139.06984381 </i>
    <varray name="rec_basis" >
     <v>       0.19301409       0.00000000       0.00000000 </v>
     <v>       0.00000000       0.19301409       0.00000000 </v>
     <v>       0.00000000       0.00000000       0.19301409 </v>
    </varray>
   </crystal>
   <varray name="positions" >
    <v>       0.00000000       0.00000000       0.00000000 </v>
    <v>       0.00000000       0.50000000       0.50000000 </v>
    <v>       0.50000000       0.00000000       0.50000000 </v>
    <v>       0.50000000       0.50000000       0.00000000 </v>
    <v>       0.50000000       0.00000000       0.00000000 </v>
    <v>       0.50000000       0.50000000       0.50000000 </v>
    <v>       0.00000000       0.00000000       0.50000000 </v>
    <v>       0.00000000       0.50000000       0.00000000 </v>
   </varray>
  </structure>
  <varray name="forces" >
   <v>       0.00000000       0.00000000       0.00000000 </v>
   <v>       0.00000000       0.00000000       0.00000000 </v>
   <v>       0.00000000       0.00000000       0.00000000 </v>
   <v>       0.00000000       0.00000000       0.00000000 </v>
   <v>       0.00000000       0.00000000       0.00000000 </v>
   <v>       0.00000000       0.00000000       0.00000000 </v>
   <v>       0.00000000       0.00000000       0.00000000 </v>
   <v>       0.00000000       0.00000000       0.00000000 </v>
  </varray>
  <varray name="stress" >
   <v>       0.00448954       0.00000000       0.00000000 </v>
   <v>       0.00000000       0.00448954       0.00000000 </v>
   <v>       0.00000000       0.00000000       0.00448954 </v>
  </varray>
  <energy>
   <i name="e_fr_energy">    -36.22850952 </i>
   <i name="e_wo_entrp">    -36.22850952 </i>
   <i name="e_0_energy">      0.00000000 </i>
  </energy>
  <time name="totalsc">    2.47    2.49</time>
 </calculation>
 <calculation>
  <scstep>
   <time name="dav">    0.26    0.26</time>
   <time name="total">    0.37    0.37</time>
   <energy>
    <i name="alphaZ">    152.67567731 </i>
    <i name="ewald">  -3130.11856058 </i>
    <i name="hartreedc">  -1155.25330200 </i>
    <i name="XCdc">    161.40996717 </i>
    <i name="pawpsdc">   4678.48868632 </i>
    <i name="pawaedc">  -5131.47340481 </i>
    <i name="eentropy">      0.00000000 </i>
    <i name="bandstr">   -933.66300347 </i>
    <i name="atom">   5321.70543053 </i>
    <i name="e_fr_energy">    -36.22850953 </i>
    <i name="e_wo_entrp">    -36.22850953 </i>
    <i name="e_0_energy">    -36.22850953 </i>
   </energy>
  </scstep>
  <scstep>
   <time name="dav">    0.16    0.16</time>
   <time name="total">    0.27    0.27</time>
   <energy>
    <i name="e_fr_energy">    -36.22850953 </i>
    <i name="e_wo_entrp">    -36.22850953 </i>
    <i name="e_0_energy">    -36.22850953 </i>
   </energy>
  </scstep>
  <scstep>
   <time name="dav">    0.16    0.16</time>
   <time name="total">    0.27    0.27</time>
   <energy>
    <i name="e_fr_energy">    -36.22850953 </i>
    <i name="e_wo_entrp">    -36.22850953 </i>
    <i name="e_0_energy">    -36.22850953 </i>
   </energy>
  </scstep>
  <scstep>
   <time name="dav">    0.16    0.16</time>
   <time name="total">    0.27    0.27</time>
   <energy>
    <i name="e_fr_energy">    -36.22850953 </i>
    <i name="e_wo_entrp">    -36.22850953 </i>
    <i name="e_0_energy">    -36.22850953 </i>
   </energy>
  </scstep>
  <scstep>
   <time name="dav">    0.16    0.16</time>
   <time name="total">    0.21    0.21</time>
   <energy>
    <i name="alphaZ">    152.67567731 </i>
    <i name="ewald">  -3130.11856058 </i>
    <i name="hartreedc">  -1155.25479313 </i>
    <i name="XCdc">    161.41006682 </i>
    <i name="pawpsdc">   4678.48402249 </i>
    <i name="pawaedc">  -5131.46872776 </i>
    <i name="eentropy">      0.00000000 </i>
    <i name="bandstr">   -933.66162519 </i>
    <i name="atom">   5321.70543053 </i>
    <i name="e_fr_energy">    -36.22850952 </i>
    <i name="e_wo_entrp">    -36.22850952 </i>
    <i name="e_0_energy">    -36.22850952 </i>
   </energy>
  </scstep>
  <structure>
   <crystal>
    <varray name="basis" >
     <v>       5.18097220       0.00000000       0.00000000 </v>
     <v>       0.00000000       5.18097220       0.00000000 </v>
     <v>       0.00000000       0.00000000       5.18097220 </v>
    </varray>
    <i name="volume">    139.07010619 </i>
    <varray name="rec_basis" >
     <v>       0.19301397       0.00000000       0.00000000 </v>
     <v>       0.00000000       0.19301397       0.00000000 </v>
     <v>       0.00000000       0.00000000       0.19301397 </v>
    </varray>
   </crystal>
   <varray name="positions" >
    <v>       0.00000000       0.00000000       0.00000000 </v>
    <v>       0.00000000       0.50000000       0.50000000 </v>
    <v>       0.50000000       0.00000000       0.50000000 </v>
    <v>       0.50000000       0.50000000       0.00000000 </v>
    <v>       0.50000000       0.00000000       0.00000000 </v>
    <v>       0.50000000       0.50000000       0.50000000 </v>
    <v>       0.00000000       0.00000000       0.50000000 </v>
    <v>       0.00000000       0.50000000       0.00000000 </v>
   </varray>
  </structure>
  <varray name="forces" >
   <v>       0.00000000       0.00000000       0.00000000 </v>
   <v>       0.00000000       0.00000000       0.00000000 </v>
   <v>       0.00000000       0.00000000       0.00000000 </v>
   <v>       0.00000000       0.00000000       0.00000000 </v>
   <v>       0.00000000       0.00000000       0.00000000 </v>
   <v>       0.00000000       0.00000000       0.00000000 </v>
   <v>       0.00000000       0.00000000       0.00000000 </v>
   <v>       0.00000000       0.00000000       0.00000000 </v>
  </varray>
  <varray name="stress" >
   <v>       0.00171133       0.00000000       0.00000000 </v>
   <v>       0.00000000       0.00171133       0.00000000 </v>
   <v>       0.00000000       0.00000000       0.00171133 </v>
  </varray>
  <energy>
   <i name="e_fr_energy">    -36.22850952 </i>
   <i name="e_wo_entrp">    -36.22850952 </i>
   <i name="e_0_energy">      0.00000000 </i>
  </energy>
  <time name="totalsc">    2.44    2.46</time>
 </calculation>
 <calculation>
  <scstep>
   <time name="dav">    0.16    0.16</time>
   <time name="total">    0.27    0.27</time>
   <energy>
    <i name="alphaZ">    152.67564056 </i>
    <i name="ewald">  -3130.11830938 </i>
    <i name="hartreedc">  -1155.25472892 </i>
    <i name="XCdc">    161.41005252 </i>
    <i name="pawpsdc">   4678.48405391 </i>
    <i name="pawaedc">  -5131.46877019 </i>
    <i name="eentropy">      0.00000000 </i>
    <i name="bandstr">   -933.66187855 </i>
    <i name="atom">   5321.70543053 </i>
    <i name="e_fr_energy">    -36.22850952 </i>
    <i name="e_wo_entrp">    -36.22850952 </i>
    <i name="e_0_energy">    -36.22850952 </i>
   </energy>
  </scstep>
  <scstep>
   <time name="dav">    0.16    0.16</time>
   <time name="total">    0.27    0.27</time>
   <energy>
    <i name="e_fr_energy">    -36.22850952 </i>
    <i name="e_wo_entrp">    -36.22850952 </i>
    <i name="e_0_energy">    -36.22850952 </i>
   </energy>
  </scstep>
  <scstep>
   <time name="dav">    0.16    0.16</time>
   <time name="total">    0.27    0.27</time>
   <energy>
    <i name="e_fr_energy">    -36.22850952 </i>
    <i name="e_wo_entrp">    -36.22850952 </i>
    <i name="e_0_energy">    -36.22850952 </i>
   </energy>
  </scstep>
  <scstep>
   <time name="dav">    0.16    0.16</time>
   <time name="total">    0.27    0.27</time>
   <energy>
    <i name="e_fr_energy">    -36.22850952 </i>
    <i name="e_wo_entrp">    -36.22850952 </i>
    <i name="e_0_energy">    -36.22850952 </i>
   </energy>
  </scstep>
  <scstep>
   <time name="dav">    0.16    0.16</time>
   <time name="total">    0.21    0.21</time>
   <energy>
    <i name="alphaZ">    152.67564056 </i>
    <i name="ewald">  -3130.11830938 </i>
    <i name="hartreedc">  -1155.25496536 </i>
    <i name="XCdc">    161.41006820 </i>
    <i name="pawpsdc">   4678.48740337 </i>
    <i name="pawaedc">  -5131.47212418 </i>
    <i name="eentropy">      0.00000000 </i>
    <i name="bandstr">   -933.66165325 </i>
    <i name="atom">   5321.70543053 </i>
    <i name="e_fr_energy">    -36.22850952 </i>
    <i name="e_wo_entrp">    -36.22850952 </i>
    <i name="e_0_energy">    -36.22850952 </i>
   </energy>
  </scstep>
  <structure>
   <crystal>
    <varray name="basis" >
     <v>       5.18097262       0.00000000       0.00000000 </v>
     <v>       0.00000000       5.18097262       0.00000000 </v>
     <v>       0.00000000       0.00000000       5.18097262 </v>
    </varray>
    <i name="volume">    139.07013967 </i>
    <varray name="rec_basis" >
     <v>       0.19301395       0.00000000       0.00000000 </v>
     <v>       0.00000000       0.19301395       0.00000000 </v>
     <v>       0.00000000       0.00000000       0.19301395 </v>
    </varray>
   </crystal>
   <varray name="positions" >
    <v>       0.00000000       0.00000000       0.00000000 </v>
    <v>       0.00000000       0.50000000       0.50000000 </v>
    <v>       0.50000000       0.00000000       0.50000000 </v>
    <v>       0.50000000       0.50000000       0.00000000 </v>
    <v>       0.50000000       0.00000000       0.00000000 </v>
    <v>       0.50000000       0.50000000       0.50000000 </v>
    <v>       0.00000000       0.00000000       0.50000000 </v>
    <v>       0.00000000       0.50000000       0.00000000 </v>
   </varray>
  </structure>
  <varray name="forces" >
   <v>       0.00000000       0.00000000       0.00000000 </v>
   <v>       0.00000000       0.00000000       0.00000000 </v>
   <v>       0.00000000       0.00000000       0.00000000 </v>
   <v>       0.00000000       0.00000000       0.00000000 </v>
   <v>       0.00000000       0.00000000       0.00000000 </v>
   <v>       0.00000000       0.00000000       0.00000000 </v>
   <v>       0.00000000       0.00000000       0.00000000 </v>
   <v>       0.00000000       0.00000000       0.00000000 </v>
  </varray>
  <varray name="stress" >
   <v>       0.00057265       0.00000000       0.00000000 </v>
   <v>       0.00000000       0.00057265       0.00000000 </v>
   <v>       0.00000000       0.00000000       0.00057265 </v>
  </varray>
  <energy>
   <i name="e_fr_energy">    -36.22850952 </i>
   <i name="e_wo_entrp">    -36.22850952 </i>
   <i name="e_0_energy">      0.00000000 </i>
  </energy>
  <time name="totalsc">    2.35    2.37</time>
 </calculation>
 <calculation>
  <scstep>
   <time name="dav">    0.16    0.16</time>
   <time name="total">    0.27    0.27</time>
   <energy>
    <i name="alphaZ">    152.67563317 </i>
    <i name="ewald">  -3130.11825890 </i>
    <i name="hartreedc">  -1155.25494467 </i>
    <i name="XCdc">    161.41006447 </i>
    <i name="pawpsdc">   4678.48751717 </i>
    <i name="pawaedc">  -5131.47223433 </i>
    <i name="eentropy">      0.00000000 </i>
    <i name="bandstr">   -933.66171696 </i>
    <i name="atom">   5321.70543053 </i>
    <i name="e_fr_energy">    -36.22850952 </i>
    <i name="e_wo_entrp">    -36.22850952 </i>
    <i name="e_0_energy">    -36.22850952 </i>
   </energy>
  </scstep>
  <scstep>
   <time name="dav">    0.16    0.16</time>
   <time name="total">    0.27    0.27</time>
   <energy>
    <i name="e_fr_energy">    -36.22850952 </i>
    <i name="e_wo_entrp">    -36.22850952 </i>
    <i name="e_0_energy">    -36.22850952 </i>
   </energy>
  </scstep>
  <scstep>
   <time name="dav">    0.16    0.16</time>
   <time name="total">    0.27    0.27</time>
   <energy>
    <i name="e_fr_energy">    -36.22850952 </i>
    <i name="e_wo_entrp">    -36.22850952 </i>
    <i name="e_0_energy">    -36.22850952 </i>
   </energy>
  </scstep>
  <scstep>
   <time name="dav">    0.16    0.16</time>
   <time name="total">    0.27    0.27</time>
   <energy>
    <i name="e_fr_energy">    -36.22850952 </i>
    <i name="e_wo_entrp">    -36.22850952 </i>
    <i name="e_0_energy">    -36.22850952 </i>
   </energy>
  </scstep>
  <scstep>
   <time name="dav">    0.16    0.16</time>
   <time name="total">    0.20    0.21</time>
   <energy>
    <i name="alphaZ">    152.67563317 </i>
    <i name="ewald">  -3130.11825890 </i>
    <i name="hartreedc">  -1155.25498379 </i>
    <i name="XCdc">    161.41006717 </i>
    <i name="pawpsdc">   4678.48720690 </i>
    <i name="pawaedc">  -5131.47192307 </i>
    <i name="eentropy">      0.00000000 </i>
    <i name="bandstr">   -933.66168153 </i>
    <i name="atom">   5321.70543053 </i>
    <i name="e_fr_energy">    -36.22850952 </i>
    <i name="e_wo_entrp">    -36.22850952 </i>
    <i name="e_0_energy">    -36.22850952 </i>
   </energy>
  </scstep>
  <structure>
   <crystal>
    <varray name="basis" >
     <v>       5.18097270       0.00000000       0.00000000 </v>
     <v>       0.00000000       5.18097270       0.00000000 </v>
     <v>       0.00000000       0.00000000       5.18097270 </v>
    </varray>
    <i name="volume">    139.07014640 </i>
    <varray name="rec_basis" >
     <v>       0.19301395       0.00000000       0.00000000 </v>
     <v>       0.00000000       0.19301395       0.00000000 </v>
     <v>       0.00000000       0.00000000       0.19301395 </v>
    </varray>
   </crystal>
   <varray name="positions" >
    <v>       0.00000000       0.00000000       0.00000000 </v>
    <v>       0.00000000       0.50000000       0.50000000 </v>
    <v>       0.50000000       0.00000000       0.50000000 </v>
    <v>       0.50000000       0.50000000       0.00000000 </v>
    <v>       0.50000000       0.00000000       0.00000000 </v>
    <v>       0.50000000       0.50000000       0.50000000 </v>
    <v>       0.00000000       0.00000000       0.50000000 </v>
    <v>       0.00000000       0.50000000       0.00000000 </v>
   </varray>
  </structure>
  <varray name="forces" >
   <v>       0.00000000       0.00000000       0.00000000 </v>
   <v>       0.00000000       0.00000000       0.00000000 </v>
   <v>       0.00000000       0.00000000       0.00000000 </v>
   <v>       0.00000000       0.00000000       0.00000000 </v>
   <v>       0.00000000       0.00000000       0.00000000 </v>
   <v>       0.00000000       0.00000000       0.00000000 </v>
   <v>       0.00000000       0.00000000       0.00000000 </v>
   <v>       0.00000000       0.00000000       0.00000000 </v>
  </varray>
  <varray name="stress" >
   <v>       0.00068937       0.00000000       0.00000000 </v>
   <v>       0.00000000       0.00068937       0.00000000 </v>
   <v>       0.00000000       0.00000000       0.00068937 </v>
  </varray>
  <energy>
   <i name="e_fr_energy">    -36.22850952 </i>
   <i name="e_wo_entrp">    -36.22850952 </i>
   <i name="e_0_energy">      0.00000000 </i>
  </energy>
  <time name="totalsc">    2.34    2.36</time>
 </calculation>
 <calculation>
  <scstep>
   <time name="dav">    0.16    0.16</time>
   <time name="total">    0.26    0.27</time>
   <energy>
    <i name="alphaZ">    152.67562761 </i>
    <i name="ewald">  -3130.11822093 </i>
    <i name="hartreedc">  -1155.25496975 </i>
    <i name="XCdc">    161.41006458 </i>
    <i name="pawpsdc">   4678.48723955 </i>
    <i name="pawaedc">  -5131.47195530 </i>
    <i name="eentropy">      0.00000000 </i>
    <i name="bandstr">   -933.66172581 </i>
    <i name="atom">   5321.70543053 </i>
    <i name="e_fr_energy">    -36.22850952 </i>
    <i name="e_wo_entrp">    -36.22850952 </i>
    <i name="e_0_energy">    -36.22850952 </i>
   </energy>
  </scstep>
  <scstep>
   <time name="dav">    0.15    0.16</time>
   <time name="total">    0.26    0.27</time>
   <energy>
    <i name="e_fr_energy">    -36.22850952 </i>
    <i name="e_wo_entrp">    -36.22850952 </i>
    <i name="e_0_energy">    -36.22850952 </i>
   </energy>
  </scstep>
  <scstep>
   <time name="dav">    0.16    0.16</time>
   <time name="total">    0.26    0.27</time>
   <energy>
    <i name="e_fr_energy">    -36.22850952 </i>
    <i name="e_wo_entrp">    -36.22850952 </i>
    <i name="e_0_energy">    -36.22850952 </i>
   </energy>
  </scstep>
  <scstep>
   <time name="dav">    0.16    0.16</time>
   <time name="total">    0.26    0.27</time>
   <energy>
    <i name="e_fr_energy">    -36.22850952 </i>
    <i name="e_wo_entrp">    -36.22850952 </i>
    <i name="e_0_energy">    -36.22850952 </i>
   </energy>
  </scstep>
  <scstep>
   <time name="dav">    0.16    0.16</time>
   <time name="total">    0.20    0.21</time>
   <energy>
    <i name="alphaZ">    152.67562761 </i>
    <i name="ewald">  -3130.11822093 </i>
    <i name="hartreedc">  -1155.25499987 </i>
    <i name="XCdc">    161.41006661 </i>
    <i name="pawpsdc">   4678.48711601 </i>
    <i name="pawaedc">  -5131.47183157 </i>
    <i name="eentropy">      0.00000000 </i>
    <i name="bandstr">   -933.66169790 </i>
    <i name="atom">   5321.70543053 </i>
    <i name="e_fr_energy">    -36.22850952 </i>
    <i name="e_wo_entrp">    -36.22850952 </i>
    <i name="e_0_energy">    -36.22850952 </i>
   </energy>
  </scstep>
  <structure>
   <crystal>
    <varray name="basis" >
     <v>       5.18097276       0.00000000       0.00000000 </v>
     <v>       0.00000000       5.18097276       0.00000000 </v>
     <v>       0.00000000       0.00000000       5.18097276 </v>
    </varray>
    <i name="volume">    139.07015146 </i>
    <varray name="rec_basis" >
     <v>       0.19301395       0.00000000       0.00000000 </v>
     <v>       0.00000000       0.19301395       0.00000000 </v>
     <v>       0.00000000       0.00000000       0.19301395 </v>
    </varray>
   </crystal>
   <varray name="positions" >
    <v>       0.00000000       0.00000000       0.00000000 </v>
    <v>       0.00000000       0.50000000       0.50000000 </v>
    <v>       0.50000000       0.00000000       0.50000000 </v>
    <v>       0.50000000       0.50000000       0.00000000 </v>
    <v>       0.50000000       0.00000000       0.00000000 </v>
    <v>       0.50000000       0.50000000       0.50000000 </v>
    <v>       0.00000000       0.00000000       0.50000000 </v>
    <v>       0.00000000       0.50000000       0.00000000 </v>
   </varray>
  </structure>
  <varray name="forces" >
   <v>       0.00000000       0.00000000       0.00000000 </v>
   <v>       0.00000000       0.00000000       0.00000000 </v>
   <v>       0.00000000       0.00000000       0.00000000 </v>
   <v>       0.00000000       0.00000000       0.00000000 </v>
   <v>       0.00000000       0.00000000       0.00000000 </v>
   <v>       0.00000000       0.00000000       0.00000000 </v>
   <v>       0.00000000       0.00000000       0.00000000 </v>
   <v>       0.00000000       0.00000000       0.00000000 </v>
  </varray>
  <varray name="stress" >
   <v>       0.00066765       0.00000000       0.00000000 </v>
   <v>       0.00000000       0.00066765       0.00000000 </v>
   <v>       0.00000000       0.00000000       0.00066765 </v>
  </varray>
  <energy>
   <i name="e_fr_energy">    -36.22850952 </i>
   <i name="e_wo_entrp">    -36.22850952 </i>
   <i name="e_0_energy">      0.00000000 </i>
  </energy>
  <time name="totalsc">    2.33    2.35</time>
 </calculation>
 <calculation>
  <scstep>
   <time name="dav">    0.16    0.16</time>
   <time name="total">    0.26    0.27</time>
   <energy>
    <i name="alphaZ">    152.67562484 </i>
    <i name="ewald">  -3130.11820195 </i>
    <i name="hartreedc">  -1155.25499272 </i>
    <i name="XCdc">    161.41006530 </i>
    <i name="pawpsdc">   4678.48713290 </i>
    <i name="pawaedc">  -5131.47184814 </i>
    <i name="eentropy">      0.00000000 </i>
    <i name="bandstr">   -933.66172028 </i>
    <i name="atom">   5321.70543053 </i>
    <i name="e_fr_energy">    -36.22850952 </i>
    <i name="e_wo_entrp">    -36.22850952 </i>
    <i name="e_0_energy">    -36.22850952 </i>
   </energy>
  </scstep>
  <scstep>
   <time name="dav">    0.15    0.16</time>
   <time name="total">    0.26    0.27</time>
   <energy>
    <i name="e_fr_energy">    -36.22850952 </i>
    <i name="e_wo_entrp">    -36.22850952 </i>
    <i name="e_0_energy">    -36.22850952 </i>
   </energy>
  </scstep>
  <scstep>
   <time name="dav">    0.16    0.16</time>
   <time name="total">    0.26    0.27</time>
   <energy>
    <i name="e_fr_energy">    -36.22850952 </i>
    <i name="e_wo_entrp">    -36.22850952 </i>
    <i name="e_0_energy">    -36.22850952 </i>
   </energy>
  </scstep>
  <scstep>
   <time name="dav">    0.15    0.16</time>
   <time name="total">    0.26    0.27</time>
   <energy>
    <i name="e_fr_energy">    -36.22850952 </i>
    <i name="e_wo_entrp">    -36.22850952 </i>
    <i name="e_0_energy">    -36.22850952 </i>
   </energy>
  </scstep>
  <scstep>
   <time name="dav">    0.16    0.16</time>
   <time name="total">    0.20    0.21</time>
   <energy>
    <i name="alphaZ">    152.67562484 </i>
    <i name="ewald">  -3130.11820195 </i>
    <i name="hartreedc">  -1155.25500785 </i>
    <i name="XCdc">    161.41006632 </i>
    <i name="pawpsdc">   4678.48707142 </i>
    <i name="pawaedc">  -5131.47178650 </i>
    <i name="eentropy">      0.00000000 </i>
    <i name="bandstr">   -933.66170633 </i>
    <i name="atom">   5321.70543053 </i>
    <i name="e_fr_energy">    -36.22850952 </i>
    <i name="e_wo_entrp">    -36.22850952 </i>
    <i name="e_0_energy">    -36.22850952 </i>
   </energy>
  </scstep>
  <structure>
   <crystal>
    <varray name="basis" >
     <v>       5.18097280       0.00000000       0.00000000 </v>
     <v>       0.00000000       5.18097280       0.00000000 </v>
     <v>       0.00000000       0.00000000       5.18097280 </v>
    </varray>
    <i name="volume">    139.07015399 </i>
    <varray name="rec_basis" >
     <v>       0.19301395       0.00000000       0.00000000 </v>
     <v>       0.00000000       0.19301395       0.00000000 </v>
     <v>       0.00000000       0.00000000       0.19301395 </v>
    </varray>
   </crystal>
   <varray name="positions" >
    <v>       0.00000000       0.00000000       0.00000000 </v>
    <v>       0.00000000       0.50000000       0.50000000 </v>
    <v>       0.50000000       0.00000000       0.50000000 </v>
    <v>       0.50000000       0.50000000       0.00000000 </v>
    <v>       0.50000000       0.00000000       0.00000000 </v>
    <v>       0.50000000       0.50000000       0.50000000 </v>
    <v>       0.00000000       0.00000000       0.50000000 </v>
    <v>       0.00000000       0.50000000       0.00000000 </v>
   </varray>
  </structure>
  <varray name="forces" >
   <v>       0.00000000       0.00000000       0.00000000 </v>
   <v>       0.00000000       0.00000000       0.00000000 </v>
   <v>       0.00000000       0.00000000       0.00000000 </v>
   <v>       0.00000000       0.00000000       0.00000000 </v>
   <v>       0.00000000       0.00000000       0.00000000 </v>
   <v>       0.00000000       0.00000000       0.00000000 </v>
   <v>       0.00000000       0.00000000       0.00000000 </v>
   <v>       0.00000000       0.00000000       0.00000000 </v>
  </varray>
  <varray name="stress" >
   <v>       0.00066288       0.00000000       0.00000000 </v>
   <v>       0.00000000       0.00066288       0.00000000 </v>
   <v>       0.00000000       0.00000000       0.00066288 </v>
  </varray>
  <energy>
   <i name="e_fr_energy">    -36.22850952 </i>
   <i name="e_wo_entrp">    -36.22850952 </i>
   <i name="e_0_energy">      0.00000000 </i>
  </energy>
  <time name="totalsc">    2.33    2.34</time>
 </calculation>
 <calculation>
  <scstep>
   <time name="dav">    0.16    0.16</time>
   <time name="total">    0.26    0.27</time>
   <energy>
    <i name="alphaZ">    152.67562345 </i>
    <i name="ewald">  -3130.11819246 </i>
    <i name="hartreedc">  -1155.25500428 </i>
    <i name="XCdc">    161.41006567 </i>
    <i name="pawpsdc">   4678.48708007 </i>
    <i name="pawaedc">  -5131.47179499 </i>
    <i name="eentropy">      0.00000000 </i>
    <i name="bandstr">   -933.66171752 </i>
    <i name="atom">   5321.70543053 </i>
    <i name="e_fr_energy">    -36.22850952 </i>
    <i name="e_wo_entrp">    -36.22850952 </i>
    <i name="e_0_energy">    -36.22850952 </i>
   </energy>
  </scstep>
  <scstep>
   <time name="dav">    0.15    0.16</time>
   <time name="total">    0.26    0.27</time>
   <energy>
    <i name="e_fr_energy">    -36.22850952 </i>
    <i name="e_wo_entrp">    -36.22850952 </i>
    <i name="e_0_energy">    -36.22850952 </i>
   </energy>
  </scstep>
  <scstep>
   <time name="dav">    0.16    0.16</time>
   <time name="total">    0.26    0.27</time>
   <energy>
    <i name="e_fr_energy">    -36.22850952 </i>
    <i name="e_wo_entrp">    -36.22850952 </i>
    <i name="e_0_energy">    -36.22850952 </i>
   </energy>
  </scstep>
  <scstep>
   <time name="dav">    0.16    0.16</time>
   <time name="total">    0.26    0.27</time>
   <energy>
    <i name="e_fr_energy">    -36.22850952 </i>
    <i name="e_wo_entrp">    -36.22850952 </i>
    <i name="e_0_energy">    -36.22850952 </i>
   </energy>
  </scstep>
  <scstep>
   <time name="dav">    0.16    0.16</time>
   <time name="total">    0.20    0.21</time>
   <energy>
    <i name="alphaZ">    152.67562345 </i>
    <i name="ewald">  -3130.11819246 </i>
    <i name="hartreedc">  -1155.25501184 </i>
    <i name="XCdc">    161.41006618 </i>
    <i name="pawpsdc">   4678.48704908 </i>
    <i name="pawaedc">  -5131.47176392 </i>
    <i name="eentropy">      0.00000000 </i>
    <i name="bandstr">   -933.66171054 </i>
    <i name="atom">   5321.70543053 </i>
    <i name="e_fr_energy">    -36.22850952 </i>
    <i name="e_wo_entrp">    -36.22850952 </i>
    <i name="e_0_energy">    -36.22850952 </i>
   </energy>
  </scstep>
  <structure>
   <crystal>
    <varray name="basis" >
     <v>       5.18097281       0.00000000       0.00000000 </v>
     <v>       0.00000000       5.18097281       0.00000000 </v>
     <v>       0.00000000       0.00000000       5.18097281 </v>
    </varray>
    <i name="volume">    139.07015525 </i>
    <varray name="rec_basis" >
     <v>       0.19301394       0.00000000       0.00000000 </v>
     <v>       0.00000000       0.19301394       0.00000000 </v>
     <v>       0.00000000       0.00000000       0.19301394 </v>
    </varray>
   </crystal>
   <varray name="positions" >
    <v>       0.00000000       0.00000000       0.00000000 </v>
    <v>       0.00000000       0.50000000       0.50000000 </v>
    <v>       0.50000000       0.00000000       0.50000000 </v>
    <v>       0.50000000       0.50000000       0.00000000 </v>
    <v>       0.50000000       0.00000000       0.00000000 </v>
    <v>       0.50000000       0.50000000       0.50000000 </v>
    <v>       0.00000000       0.00000000       0.50000000 </v>
    <v>       0.00000000       0.50000000       0.00000000 </v>
   </varray>
  </structure>
  <varray name="forces" >
   <v>       0.00000000       0.00000000       0.00000000 </v>
   <v>       0.00000000       0.00000000       0.00000000 </v>
   <v>       0.00000000       0.00000000       0.00000000 </v>
   <v>       0.00000000       0.00000000       0.00000000 </v>
   <v>       0.00000000       0.00000000       0.00000000 </v>
   <v>       0.00000000       0.00000000       0.00000000 </v>
   <v>       0.00000000       0.00000000       0.00000000 </v>
   <v>       0.00000000       0.00000000       0.00000000 </v>
  </varray>
  <varray name="stress" >
   <v>       0.00065991       0.00000000       0.00000000 </v>
   <v>       0.00000000       0.00065991       0.00000000 </v>
   <v>       0.00000000       0.00000000       0.00065991 </v>
  </varray>
  <energy>
   <i name="e_fr_energy">    -36.22850952 </i>
   <i name="e_wo_entrp">    -36.22850952 </i>
   <i name="e_0_energy">      0.00000000 </i>
  </energy>
  <time name="totalsc">    2.34    2.36</time>
 </calculation>
 <calculation>
  <scstep>
   <time name="dav">    0.15    0.16</time>
   <time name="total">    0.26    0.27</time>
   <energy>
    <i name="alphaZ">    152.67562275 </i>
    <i name="ewald">  -3130.11818771 </i>
    <i name="hartreedc">  -1155.25501005 </i>
    <i name="XCdc">    161.41006585 </i>
    <i name="pawpsdc">   4678.48705343 </i>
    <i name="pawaedc">  -5131.47176818 </i>
    <i name="eentropy">      0.00000000 </i>
    <i name="bandstr">   -933.66171613 </i>
    <i name="atom">   5321.70543053 </i>
    <i name="e_fr_energy">    -36.22850952 </i>
    <i name="e_wo_entrp">    -36.22850952 </i>
    <i name="e_0_energy">    -36.22850952 </i>
   </energy>
  </scstep>
  <scstep>
   <time name="dav">    0.15    0.16</time>
   <time name="total">    0.26    0.27</time>
   <energy>
    <i name="e_fr_energy">    -36.22850952 </i>
    <i name="e_wo_entrp">    -36.22850952 </i>
    <i name="e_0_energy">    -36.22850952 </i>
   </energy>
  </scstep>
  <scstep>
   <time name="dav">    0.16    0.16</time>
   <time name="total">    0.26    0.27</time>
   <energy>
    <i name="e_fr_energy">    -36.22850952 </i>
    <i name="e_wo_entrp">    -36.22850952 </i>
    <i name="e_0_energy">    -36.22850952 </i>
   </energy>
  </scstep>
  <scstep>
   <time name="dav">    0.16    0.16</time>
   <time name="total">    0.26    0.27</time>
   <energy>
    <i name="e_fr_energy">    -36.22850952 </i>
    <i name="e_wo_entrp">    -36.22850952 </i>
    <i name="e_0_energy">    -36.22850952 </i>
   </energy>
  </scstep>
  <scstep>
   <time name="dav">    0.15    0.15</time>
   <time name="total">    0.20    0.20</time>
   <energy>
    <i name="alphaZ">    152.67562275 </i>
    <i name="ewald">  -3130.11818771 </i>
    <i name="hartreedc">  -1155.25501384 </i>
    <i name="XCdc">    161.41006611 </i>
    <i name="pawpsdc">   4678.48703796 </i>
    <i name="pawaedc">  -5131.47175267 </i>
    <i name="eentropy">      0.00000000 </i>
    <i name="bandstr">   -933.66171265 </i>
    <i name="atom">   5321.70543053 </i>
    <i name="e_fr_energy">    -36.22850952 </i>
    <i name="e_wo_entrp">    -36.22850952 </i>
    <i name="e_0_energy">    -36.22850952 </i>
   </energy>
  </scstep>
  <structure>
   <crystal>
    <varray name="basis" >
[...]
     <v>       0.00000000       0.00000000       5.18097282 </v>
    </varray>
    <i name="volume">    139.07015636 </i>
    <varray name="rec_basis" >
     <v>       0.19301394       0.00000000       0.00000000 </v>
     <v>       0.00000000       0.19301394       0.00000000 </v>
     <v>       0.00000000       0.00000000       0.19301394 </v>
    </varray>
   </crystal>
   <varray name="positions" >
    <v>       0.00000000       0.00000000       0.00000000 </v>
    <v>       0.00000000       0.50000000       0.50000000 </v>
    <v>       0.50000000       0.00000000       0.50000000 </v>
    <v>       0.50000000       0.50000000       0.00000000 </v>
    <v>       0.50000000       0.00000000       0.00000000 </v>
    <v>       0.50000000       0.50000000       0.50000000 </v>
    <v>       0.00000000       0.00000000       0.50000000 </v>
    <v>       0.00000000       0.50000000       0.00000000 </v>
   </varray>
  </structure>
  <varray name="forces" >
   <v>       0.00000000       0.00000000       0.00000000 </v>
   <v>       0.00000000       0.00000000       0.00000000 </v>
   <v>       0.00000000       0.00000000       0.00000000 </v>
   <v>       0.00000000       0.00000000       0.00000000 </v>
   <v>       0.00000000       0.00000000       0.00000000 </v>
   <v>       0.00000000       0.00000000       0.00000000 </v>
   <v>       0.00000000       0.00000000       0.00000000 </v>
   <v>       0.00000000       0.00000000       0.00000000 </v>
  </varray>
  <varray name="stress" >
   <v>       0.00065807       0.00000000       0.00000000 </v>
   <v>       0.00000000       0.00065807       0.00000000 </v>
   <v>       0.00000000       0.00000000       0.00065807 </v>
  </varray>
  <energy>
   <i name="e_fr_energy">    -36.22850952 </i>
   <i name="e_wo_entrp">    -36.22850952 </i>
   <i name="e_0_energy">      0.00000000 </i>
  </energy>
  <time name="totalsc">    2.32    2.34</time>
 </calculation>
 <calculation>
  <scstep>
   <time name="dav">    0.15    0.15</time>
   <time name="total">    0.26    0.26</time>
   <energy>
    <i name="alphaZ">    152.67562214 </i>
    <i name="ewald">  -3130.11818356 </i>
    <i name="hartreedc">  -1155.25501511 </i>
    <i name="XCdc">    161.41006601 </i>
    <i name="pawpsdc">   4678.48703014 </i>
    <i name="pawaedc">  -5131.47174475 </i>
    <i name="eentropy">      0.00000000 </i>
    <i name="bandstr">   -933.66171493 </i>
    <i name="atom">   5321.70543053 </i>
    <i name="e_fr_energy">    -36.22850952 </i>
    <i name="e_wo_entrp">    -36.22850952 </i>
    <i name="e_0_energy">    -36.22850952 </i>
   </energy>
  </scstep>
  <scstep>
   <time name="dav">    0.15    0.15</time>
   <time name="total">    0.26    0.26</time>
   <energy>
    <i name="e_fr_energy">    -36.22850952 </i>
    <i name="e_wo_entrp">    -36.22850952 </i>
    <i name="e_0_energy">    -36.22850952 </i>
   </energy>
  </scstep>
  <scstep>
   <time name="dav">    0.15    0.15</time>
   <time name="total">    0.26    0.26</time>
   <energy>
    <i name="e_fr_energy">    -36.22850952 </i>
    <i name="e_wo_entrp">    -36.22850952 </i>
    <i name="e_0_energy">    -36.22850952 </i>
   </energy>
  </scstep>
  <scstep>
   <time name="dav">    0.15    0.15</time>
   <time name="total">    0.26    0.26</time>
   <energy>
    <i name="e_fr_energy">    -36.22850952 </i>
    <i name="e_wo_entrp">    -36.22850952 </i>
    <i name="e_0_energy">    -36.22850952 </i>
   </energy>
  </scstep>
  <scstep>
   <time name="dav">    0.15    0.15</time>
   <time name="total">    0.20    0.20</time>
   <energy>
    <i name="alphaZ">    152.67562214 </i>
    <i name="ewald">  -3130.11818356 </i>
    <i name="hartreedc">  -1155.25501558 </i>
    <i name="XCdc">    161.41006605 </i>
    <i name="pawpsdc">   4678.48702822 </i>
    <i name="pawaedc">  -5131.47174282 </i>
    <i name="eentropy">      0.00000000 </i>
    <i name="bandstr">   -933.66171449 </i>
    <i name="atom">   5321.70543053 </i>
    <i name="e_fr_energy">    -36.22850952 </i>
    <i name="e_wo_entrp">    -36.22850952 </i>
    <i name="e_0_energy">    -36.22850952 </i>
   </energy>
  </scstep>
  <structure>
   <crystal>
    <varray name="basis" >
     <v>       5.18097283       0.00000000       0.00000000 </v>
     <v>       0.00000000       5.18097283       0.00000000 </v>
     <v>       0.00000000       0.00000000       5.18097283 </v>
    </varray>
    <i name="volume">    139.07015644 </i>
    <varray name="rec_basis" >
     <v>       0.19301394       0.00000000       0.00000000 </v>
     <v>       0.00000000       0.19301394       0.00000000 </v>
     <v>       0.00000000       0.00000000       0.19301394 </v>
    </varray>
   </crystal>
   <varray name="positions" >
    <v>       0.00000000       0.00000000       0.00000000 </v>
    <v>       0.00000000       0.50000000       0.50000000 </v>
    <v>       0.50000000       0.00000000       0.50000000 </v>
    <v>       0.50000000       0.50000000       0.00000000 </v>
    <v>       0.50000000       0.00000000       0.00000000 </v>
    <v>       0.50000000       0.50000000       0.50000000 </v>
    <v>       0.00000000       0.00000000       0.50000000 </v>
    <v>       0.00000000       0.50000000       0.00000000 </v>
   </varray>
  </structure>
  <varray name="forces" >
   <v>       0.00000000       0.00000000       0.00000000 </v>
   <v>       0.00000000       0.00000000       0.00000000 </v>
   <v>       0.00000000       0.00000000       0.00000000 </v>
   <v>       0.00000000       0.00000000       0.00000000 </v>
   <v>       0.00000000       0.00000000       0.00000000 </v>
   <v>       0.00000000       0.00000000       0.00000000 </v>
   <v>       0.00000000       0.00000000       0.00000000 </v>
   <v>       0.00000000       0.00000000       0.00000000 </v>
  </varray>
  <varray name="stress" >
   <v>       0.00065834       0.00000000       0.00000000 </v>
   <v>       0.00000000       0.00065834       0.00000000 </v>
   <v>       0.00000000       0.00000000       0.00065834 </v>
  </varray>
  <energy>
   <i name="e_fr_energy">    -36.22850952 </i>
   <i name="e_wo_entrp">    -36.22850952 </i>
   <i name="e_0_energy">      0.00000000 </i>
  </energy>
  <time name="totalsc">    2.31    2.32</time>
 </calculation>
 <calculation>
  <scstep>
   <time name="dav">    0.15    0.15</time>
   <time name="total">    0.26    0.26</time>
   <energy>
    <i name="alphaZ">    152.67562210 </i>
    <i name="ewald">  -3130.11818326 </i>
    <i name="hartreedc">  -1155.25501547 </i>
    <i name="XCdc">    161.41006603 </i>
    <i name="pawpsdc">   4678.48702849 </i>
    <i name="pawaedc">  -5131.47174309 </i>
    <i name="eentropy">      0.00000000 </i>
    <i name="bandstr">   -933.66171484 </i>
    <i name="atom">   5321.70543053 </i>
    <i name="e_fr_energy">    -36.22850952 </i>
    <i name="e_wo_entrp">    -36.22850952 </i>
    <i name="e_0_energy">    -36.22850952 </i>
   </energy>
  </scstep>
  <scstep>
   <time name="dav">    0.15    0.15</time>
   <time name="total">    0.26    0.26</time>
   <energy>
    <i name="e_fr_energy">    -36.22850952 </i>
    <i name="e_wo_entrp">    -36.22850952 </i>
    <i name="e_0_energy">    -36.22850952 </i>
   </energy>
  </scstep>
  <scstep>
   <time name="dav">    0.16    0.16</time>
   <time name="total">    0.26    0.27</time>
   <energy>
    <i name="e_fr_energy">    -36.22850952 </i>
    <i name="e_wo_entrp">    -36.22850952 </i>
    <i name="e_0_energy">    -36.22850952 </i>
   </energy>
  </scstep>
  <scstep>
   <time name="dav">    0.15    0.15</time>
   <time name="total">    0.26    0.26</time>
   <energy>
    <i name="e_fr_energy">    -36.22850952 </i>
    <i name="e_wo_entrp">    -36.22850952 </i>
    <i name="e_0_energy">    -36.22850952 </i>
   </energy>
  </scstep>
  <scstep>
   <time name="dav">    0.15    0.15</time>
   <time name="total">    0.20    0.20</time>
   <energy>
    <i name="alphaZ">    152.67562210 </i>
    <i name="ewald">  -3130.11818326 </i>
    <i name="hartreedc">  -1155.25501571 </i>
    <i name="XCdc">    161.41006604 </i>
    <i name="pawpsdc">   4678.48702752 </i>
    <i name="pawaedc">  -5131.47174212 </i>
    <i name="eentropy">      0.00000000 </i>
    <i name="bandstr">   -933.66171462 </i>
    <i name="atom">   5321.70543053 </i>
    <i name="e_fr_energy">    -36.22850952 </i>
    <i name="e_wo_entrp">    -36.22850952 </i>
    <i name="e_0_energy">    -36.22850952 </i>
   </energy>
  </scstep>
  <structure>
   <crystal>
    <varray name="basis" >
     <v>       5.18097283       0.00000000       0.00000000 </v>
     <v>       0.00000000       5.18097283       0.00000000 </v>
     <v>       0.00000000       0.00000000       5.18097283 </v>
    </varray>
    <i name="volume">    139.07015648 </i>
    <varray name="rec_basis" >
     <v>       0.19301394       0.00000000       0.00000000 </v>
     <v>       0.00000000       0.19301394       0.00000000 </v>
     <v>       0.00000000       0.00000000       0.19301394 </v>
    </varray>
   </crystal>
   <varray name="positions" >
    <v>       0.00000000       0.00000000       0.00000000 </v>
    <v>       0.00000000       0.50000000       0.50000000 </v>
    <v>       0.50000000       0.00000000       0.50000000 </v>
    <v>       0.50000000       0.50000000       0.00000000 </v>
    <v>       0.50000000       0.00000000       0.00000000 </v>
    <v>       0.50000000       0.50000000       0.50000000 </v>
    <v>       0.00000000       0.00000000       0.50000000 </v>
    <v>       0.00000000       0.50000000       0.00000000 </v>
   </varray>
  </structure>
  <varray name="forces" >
   <v>       0.00000000       0.00000000       0.00000000 </v>
   <v>       0.00000000       0.00000000       0.00000000 </v>
   <v>       0.00000000       0.00000000       0.00000000 </v>
   <v>       0.00000000       0.00000000       0.00000000 </v>
   <v>       0.00000000       0.00000000       0.00000000 </v>
   <v>       0.00000000       0.00000000       0.00000000 </v>
   <v>       0.00000000       0.00000000       0.00000000 </v>
   <v>       0.00000000       0.00000000       0.00000000 </v>
  </varray>
  <varray name="stress" >
   <v>       0.00065819       0.00000000       0.00000000 </v>
   <v>       0.00000000       0.00065819       0.00000000 </v>
   <v>       0.00000000       0.00000000       0.00065819 </v>
  </varray>
  <energy>
   <i name="e_fr_energy">    -36.22850952 </i>
   <i name="e_wo_entrp">    -36.22850952 </i>
   <i name="e_0_energy">      0.00000000 </i>
  </energy>
  <time name="totalsc">    2.31    2.33</time>
 </calculation>
 <calculation>
  <scstep>
   <time name="dav">    0.15    0.15</time>
   <time name="total">    0.26    0.26</time>
   <energy>
    <i name="alphaZ">    152.67562208 </i>
    <i name="ewald">  -3130.11818312 </i>
    <i name="hartreedc">  -1155.25501565 </i>
    <i name="XCdc">    161.41006603 </i>
    <i name="pawpsdc">   4678.48702766 </i>
    <i name="pawaedc">  -5131.47174225 </i>
    <i name="eentropy">      0.00000000 </i>
    <i name="bandstr">   -933.66171480 </i>
    <i name="atom">   5321.70543053 </i>
    <i name="e_fr_energy">    -36.22850952 </i>
    <i name="e_wo_entrp">    -36.22850952 </i>
    <i name="e_0_energy">    -36.22850952 </i>
   </energy>
  </scstep>
  <scstep>
   <time name="dav">    0.15    0.15</time>
   <time name="total">    0.26    0.26</time>
   <energy>
    <i name="e_fr_energy">    -36.22850952 </i>
    <i name="e_wo_entrp">    -36.22850952 </i>
    <i name="e_0_energy">    -36.22850952 </i>
   </energy>
  </scstep>
  <scstep>
   <time name="dav">    0.15    0.15</time>
   <time name="total">    0.26    0.26</time>
   <energy>
    <i name="e_fr_energy">    -36.22850952 </i>
    <i name="e_wo_entrp">    -36.22850952 </i>
    <i name="e_0_energy">    -36.22850952 </i>
   </energy>
  </scstep>
  <scstep>
   <time name="dav">    0.15    0.15</time>
   <time name="total">    0.26    0.26</time>
   <energy>
    <i name="e_fr_energy">    -36.22850952 </i>
    <i name="e_wo_entrp">    -36.22850952 </i>
    <i name="e_0_energy">    -36.22850952 </i>
   </energy>
  </scstep>
  <scstep>
   <time name="dav">    0.15    0.15</time>
   <time name="total">    0.20    0.20</time>
   <energy>
    <i name="alphaZ">    152.67562208 </i>
    <i name="ewald">  -3130.11818312 </i>
    <i name="hartreedc">  -1155.25501577 </i>
    <i name="XCdc">    161.41006604 </i>
    <i name="pawpsdc">   4678.48702717 </i>
    <i name="pawaedc">  -5131.47174176 </i>
    <i name="eentropy">      0.00000000 </i>
    <i name="bandstr">   -933.66171469 </i>
    <i name="atom">   5321.70543053 </i>
    <i name="e_fr_energy">    -36.22850952 </i>
    <i name="e_wo_entrp">    -36.22850952 </i>
    <i name="e_0_energy">    -36.22850952 </i>
   </energy>
  </scstep>
  <structure>
   <crystal>
    <varray name="basis" >
     <v>       5.18097283       0.00000000       0.00000000 </v>
     <v>       0.00000000       5.18097283       0.00000000 </v>
     <v>       0.00000000       0.00000000       5.18097283 </v>
    </varray>
    <i name="volume">    139.07015650 </i>
    <varray name="rec_basis" >
     <v>       0.19301394       0.00000000       0.00000000 </v>
     <v>       0.00000000       0.19301394       0.00000000 </v>
     <v>       0.00000000       0.00000000       0.19301394 </v>
    </varray>
   </crystal>
   <varray name="positions" >
    <v>       0.00000000       0.00000000       0.00000000 </v>
    <v>       0.00000000       0.50000000       0.50000000 </v>
    <v>       0.50000000       0.00000000       0.50000000 </v>
    <v>       0.50000000       0.50000000       0.00000000 </v>
    <v>       0.50000000       0.00000000       0.00000000 </v>
    <v>       0.50000000       0.50000000       0.50000000 </v>
    <v>       0.00000000       0.00000000       0.50000000 </v>
    <v>       0.00000000       0.50000000       0.00000000 </v>
   </varray>
  </structure>
  <varray name="forces" >
   <v>       0.00000000       0.00000000       0.00000000 </v>
   <v>       0.00000000       0.00000000       0.00000000 </v>
   <v>       0.00000000       0.00000000       0.00000000 </v>
   <v>       0.00000000       0.00000000       0.00000000 </v>
   <v>       0.00000000       0.00000000       0.00000000 </v>
   <v>       0.00000000       0.00000000       0.00000000 </v>
   <v>       0.00000000       0.00000000       0.00000000 </v>
   <v>       0.00000000       0.00000000       0.00000000 </v>
  </varray>
  <varray name="stress" >
   <v>       0.00065803       0.00000000       0.00000000 </v>
   <v>       0.00000000       0.00065803       0.00000000 </v>
   <v>       0.00000000       0.00000000       0.00065803 </v>
  </varray>
  <energy>
   <i name="e_fr_energy">    -36.22850952 </i>
   <i name="e_wo_entrp">    -36.22850952 </i>
   <i name="e_0_energy">      0.00000000 </i>
  </energy>
  <time name="totalsc">    2.31    2.32</time>
 </calculation>
 <calculation>
  <scstep>
   <time name="dav">    0.28    0.28</time>
   <time name="total">    0.39    0.39</time>
   <energy>
    <i name="alphaZ">    152.60682222 </i>
    <i name="ewald">  -3129.64793988 </i>
    <i name="hartreedc">  -1155.08145975 </i>
    <i name="XCdc">    161.37835612 </i>
    <i name="pawpsdc">   4678.48702723 </i>
    <i name="pawaedc">  -5131.47174182 </i>
    <i name="eentropy">      0.00000000 </i>
    <i name="bandstr">   -934.20505075 </i>
    <i name="atom">   5321.70543053 </i>
    <i name="e_fr_energy">    -36.22855610 </i>
    <i name="e_wo_entrp">    -36.22855610 </i>
    <i name="e_0_energy">    -36.22855610 </i>
   </energy>
  </scstep>
  <scstep>
   <time name="dav">    0.24    0.24</time>
   <time name="total">    0.35    0.35</time>
   <energy>
    <i name="e_fr_energy">    -36.22851668 </i>
    <i name="e_wo_entrp">    -36.22851668 </i>
    <i name="e_0_energy">    -36.22851668 </i>
   </energy>
  </scstep>
  <scstep>
   <time name="dav">    0.26    0.26</time>
   <time name="total">    0.37    0.37</time>
   <energy>
    <i name="e_fr_energy">    -36.22850472 </i>
    <i name="e_wo_entrp">    -36.22850472 </i>
    <i name="e_0_energy">    -36.22850472 </i>
   </energy>
  </scstep>
  <scstep>
   <time name="dav">    0.23    0.23</time>
   <time name="total">    0.34    0.34</time>
   <energy>
    <i name="e_fr_energy">    -36.22850354 </i>
    <i name="e_wo_entrp">    -36.22850354 </i>
    <i name="e_0_energy">    -36.22850354 </i>
   </energy>
  </scstep>
  <scstep>
   <time name="dav">    0.26    0.26</time>
   <time name="total">    0.37    0.37</time>
   <energy>
    <i name="e_fr_energy">    -36.22850293 </i>
    <i name="e_wo_entrp">    -36.22850293 </i>
    <i name="e_0_energy">    -36.22850293 </i>
   </energy>
  </scstep>
  <scstep>
   <time name="dav">    0.24    0.24</time>
   <time name="total">    0.35    0.35</time>
   <energy>
    <i name="e_fr_energy">    -36.22850287 </i>
    <i name="e_wo_entrp">    -36.22850287 </i>
    <i name="e_0_energy">    -36.22850287 </i>
   </energy>
  </scstep>
  <scstep>
   <time name="dav">    0.17    0.17</time>
   <time name="total">    0.28    0.28</time>
   <energy>
    <i name="e_fr_energy">    -36.22850285 </i>
    <i name="e_wo_entrp">    -36.22850285 </i>
    <i name="e_0_energy">    -36.22850285 </i>
   </energy>
  </scstep>
  <scstep>
   <time name="dav">    0.15    0.15</time>
   <time name="total">    0.20    0.20</time>
   <energy>
    <i name="alphaZ">    152.60682222 </i>
    <i name="ewald">  -3129.64793988 </i>
    <i name="hartreedc">  -1155.45135287 </i>
    <i name="XCdc">    161.40317049 </i>
    <i name="pawpsdc">   4677.26620066 </i>
    <i name="pawaedc">  -5130.24585828 </i>
    <i name="eentropy">      0.00000000 </i>
    <i name="bandstr">   -933.86497573 </i>
    <i name="atom">   5321.70543053 </i>
    <i name="e_fr_energy">    -36.22850285 </i>
    <i name="e_wo_entrp">    -36.22850285 </i>
    <i name="e_0_energy">    -36.22850285 </i>
   </energy>
  </scstep>
  <structure>
   <crystal>
    <varray name="basis" >
     <v>       5.18175129       0.00000000       0.00000000 </v>
     <v>       0.00000000       5.18175129       0.00000000 </v>
     <v>       0.00000000       0.00000000       5.18175129 </v>
    </varray>
    <i name="volume">    139.13285361 </i>
    <varray name="rec_basis" >
     <v>       0.19298495       0.00000000       0.00000000 </v>
     <v>       0.00000000       0.19298495       0.00000000 </v>
     <v>       0.00000000       0.00000000       0.19298495 </v>
    </varray>
   </crystal>
   <varray name="positions" >
    <v>       0.00000000       0.00000000       0.00000000 </v>
    <v>       0.00000000       0.50000000       0.50000000 </v>
    <v>       0.50000000       0.00000000       0.50000000 </v>
    <v>       0.50000000       0.50000000       0.00000000 </v>
    <v>       0.50000000       0.00000000       0.00000000 </v>
    <v>       0.50000000       0.50000000       0.50000000 </v>
    <v>       0.00000000       0.00000000       0.50000000 </v>
    <v>       0.00000000       0.50000000       0.00000000 </v>
   </varray>
  </structure>
  <varray name="forces" >
   <v>       0.00000000       0.00000000       0.00000000 </v>
   <v>       0.00000000       0.00000000       0.00000000 </v>
   <v>       0.00000000       0.00000000       0.00000000 </v>
   <v>       0.00000000       0.00000000       0.00000000 </v>
   <v>       0.00000000       0.00000000       0.00000000 </v>
   <v>       0.00000000       0.00000000       0.00000000 </v>
   <v>       0.00000000       0.00000000       0.00000000 </v>
   <v>       0.00000000       0.00000000       0.00000000 </v>
  </varray>
  <varray name="stress" >
   <v>      -0.34584325       0.00000000       0.00000000 </v>
   <v>       0.00000000      -0.34584325       0.00000000 </v>
   <v>       0.00000000       0.00000000      -0.34584325 </v>
  </varray>
  <energy>
   <i name="e_fr_energy">    -36.22850285 </i>
   <i name="e_wo_entrp">    -36.22850285 </i>
   <i name="e_0_energy">      0.00000000 </i>
  </energy>
