  64  64   0   0
  0.1738377E+02  0.1036195E-08  0.1036195E-08  0.1036195E-08  0.5000000E-15
  1.000000000000000E-004
  CAR 
 unknown system                          
     12.83535030    -40.04763910  301      3.71303463      1.00000000
    -40.048  0.0000E+00  0.0000E+00
    -39.871  0.0000E+00  0.0000E+00
    -39.695  0.0000E+00  0.0000E+00
    -39.519  0.0000E+00  0.0000E+00
    -39.343  0.0000E+00  0.0000E+00
    -39.166  0.0000E+00  0.0000E+00
    -38.990  0.0000E+00  0.0000E+00
    -38.814  0.0000E+00  0.0000E+00
    -38.637  0.0000E+00  0.0000E+00
    -38.461  0.0000E+00  0.0000E+00
    -38.285  0.0000E+00  0.0000E+00
    -38.109  0.0000E+00  0.0000E+00
    -37.932  0.0000E+00  0.0000E+00
    -37.756  0.0000E+00  0.0000E+00
    -37.580  0.1089E+04  0.1920E+03
    -37.403  0.0000E+00  0.1920E+03
    -37.227  0.0000E+00  0.1920E+03
    -37.051  0.0000E+00  0.1920E+03
    -36.875  0.0000E+00  0.1920E+03
    -36.698  0.0000E+00  0.1920E+03
    -36.522  0.0000E+00  0.1920E+03
    -36.346  0.0000E+00  0.1920E+03
    -36.170  0.0000E+00  0.1920E+03
    -35.993  0.0000E+00  0.1920E+03
    -35.817  0.0000E+00  0.1920E+03
    -35.641  0.0000E+00  0.1920E+03
    -35.464  0.0000E+00  0.1920E+03
    -35.288  0.0000E+00  0.1920E+03
    -35.112  0.0000E+00  0.1920E+03
    -34.936  0.0000E+00  0.1920E+03
    -34.759  0.0000E+00  0.1920E+03
    -34.583  0.0000E+00  0.1920E+03
    -34.407  0.0000E+00  0.1920E+03
    -34.231  0.0000E+00  0.1920E+03
    -34.054  0.0000E+00  0.1920E+03
    -33.878  0.0000E+00  0.1920E+03
    -33.702  0.0000E+00  0.1920E+03
    -33.525  0.0000E+00  0.1920E+03
    -33.349  0.0000E+00  0.1920E+03
    -33.173  0.0000E+00  0.1920E+03
    -32.997  0.0000E+00  0.1920E+03
    -32.820  0.0000E+00  0.1920E+03
    -32.644  0.0000E+00  0.1920E+03
    -32.468  0.0000E+00  0.1920E+03
    -32.291  0.0000E+00  0.1920E+03
    -32.115  0.0000E+00  0.1920E+03
    -31.939  0.0000E+00  0.1920E+03
    -31.763  0.0000E+00  0.1920E+03
    -31.586  0.0000E+00  0.1920E+03
    -31.410  0.0000E+00  0.1920E+03
    -31.234  0.0000E+00  0.1920E+03
    -31.058  0.0000E+00  0.1920E+03
    -30.881  0.0000E+00  0.1920E+03
    -30.705  0.0000E+00  0.1920E+03
    -30.529  0.0000E+00  0.1920E+03
    -30.352  0.0000E+00  0.1920E+03
    -30.176  0.0000E+00  0.1920E+03
    -30.000  0.0000E+00  0.1920E+03
    -29.824  0.0000E+00  0.1920E+03
    -29.647  0.0000E+00  0.1920E+03
    -29.471  0.0000E+00  0.1920E+03
    -29.295  0.0000E+00  0.1920E+03
    -29.118  0.0000E+00  0.1920E+03
    -28.942  0.0000E+00  0.1920E+03
    -28.766  0.0000E+00  0.1920E+03
    -28.590  0.0000E+00  0.1920E+03
    -28.413  0.0000E+00  0.1920E+03
    -28.237  0.0000E+00  0.1920E+03
    -28.061  0.0000E+00  0.1920E+03
    -27.885  0.0000E+00  0.1920E+03
    -27.708  0.0000E+00  0.1920E+03
    -27.532  0.0000E+00  0.1920E+03
    -27.356  0.0000E+00  0.1920E+03
    -27.179  0.0000E+00  0.1920E+03
    -27.003  0.0000E+00  0.1920E+03
    -26.827  0.0000E+00  0.1920E+03
    -26.651  0.0000E+00  0.1920E+03
    -26.474  0.0000E+00  0.1920E+03
    -26.298  0.0000E+00  0.1920E+03
    -26.122  0.0000E+00  0.1920E+03
    -25.946  0.0000E+00  0.1920E+03
    -25.769  0.0000E+00  0.1920E+03
    -25.593  0.0000E+00  0.1920E+03
    -25.417  0.0000E+00  0.1920E+03
    -25.240  0.0000E+00  0.1920E+03
    -25.064  0.0000E+00  0.1920E+03
    -24.888  0.0000E+00  0.1920E+03
    -24.712  0.0000E+00  0.1920E+03
    -24.535  0.0000E+00  0.1920E+03
    -24.359  0.0000E+00  0.1920E+03
    -24.183  0.0000E+00  0.1920E+03
    -24.006  0.0000E+00  0.1920E+03
    -23.830  0.0000E+00  0.1920E+03
    -23.654  0.0000E+00  0.1920E+03
    -23.478  0.0000E+00  0.1920E+03
    -23.301  0.0000E+00  0.1920E+03
    -23.125  0.0000E+00  0.1920E+03
    -22.949  0.0000E+00  0.1920E+03
    -22.773  0.0000E+00  0.1920E+03
    -22.596  0.0000E+00  0.1920E+03
    -22.420  0.0000E+00  0.1920E+03
    -22.244  0.0000E+00  0.1920E+03
    -22.067  0.0000E+00  0.1920E+03
    -21.891  0.0000E+00  0.1920E+03
    -21.715  0.0000E+00  0.1920E+03
    -21.539  0.0000E+00  0.1920E+03
    -21.362  0.0000E+00  0.1920E+03
    -21.186  0.0000E+00  0.1920E+03
    -21.010  0.0000E+00  0.1920E+03
    -20.833  0.0000E+00  0.1920E+03
    -20.657  0.0000E+00  0.1920E+03
    -20.481  0.0000E+00  0.1920E+03
    -20.305  0.0000E+00  0.1920E+03
    -20.128  0.0000E+00  0.1920E+03
    -19.952  0.0000E+00  0.1920E+03
    -19.776  0.0000E+00  0.1920E+03
    -19.600  0.0000E+00  0.1920E+03
    -19.423  0.0000E+00  0.1920E+03
    -19.247  0.0000E+00  0.1920E+03
    -19.071  0.0000E+00  0.1920E+03
    -18.894  0.0000E+00  0.1920E+03
    -18.718  0.0000E+00  0.1920E+03
    -18.542  0.0000E+00  0.1920E+03
    -18.366  0.0000E+00  0.1920E+03
    -18.189  0.0000E+00  0.1920E+03
    -18.013  0.0000E+00  0.1920E+03
    -17.837  0.0000E+00  0.1920E+03
    -17.661  0.0000E+00  0.1920E+03
    -17.484  0.0000E+00  0.1920E+03
    -17.308  0.0000E+00  0.1920E+03
    -17.132  0.0000E+00  0.1920E+03
    -16.955  0.0000E+00  0.1920E+03
    -16.779  0.0000E+00  0.1920E+03
    -16.603  0.0000E+00  0.1920E+03
    -16.427  0.0000E+00  0.1920E+03
    -16.250  0.0000E+00  0.1920E+03
    -16.074  0.0000E+00  0.1920E+03
    -15.898  0.0000E+00  0.1920E+03
    -15.721  0.0000E+00  0.1920E+03
    -15.545  0.0000E+00  0.1920E+03
    -15.369  0.0000E+00  0.1920E+03
    -15.193  0.0000E+00  0.1920E+03
    -15.016  0.0000E+00  0.1920E+03
    -14.840  0.0000E+00  0.1920E+03
    -14.664  0.0000E+00  0.1920E+03
    -14.488  0.0000E+00  0.1920E+03
    -14.311  0.0000E+00  0.1920E+03
    -14.135  0.0000E+00  0.1920E+03
    -13.959  0.0000E+00  0.1920E+03
    -13.782  0.0000E+00  0.1920E+03
    -13.606  0.0000E+00  0.1920E+03
    -13.430  0.0000E+00  0.1920E+03
    -13.254  0.0000E+00  0.1920E+03
    -13.077  0.0000E+00  0.1920E+03
    -12.901  0.0000E+00  0.1920E+03
    -12.725  0.0000E+00  0.1920E+03
    -12.548  0.0000E+00  0.1920E+03
    -12.372  0.0000E+00  0.1920E+03
    -12.196  0.0000E+00  0.1920E+03
    -12.020  0.0000E+00  0.1920E+03
    -11.843  0.0000E+00  0.1920E+03
    -11.667  0.0000E+00  0.1920E+03
    -11.491  0.0000E+00  0.1920E+03
    -11.315  0.0000E+00  0.1920E+03
    -11.138  0.0000E+00  0.1920E+03
    -10.962  0.0000E+00  0.1920E+03
    -10.786  0.0000E+00  0.1920E+03
    -10.609  0.0000E+00  0.1920E+03
    -10.433  0.0000E+00  0.1920E+03
    -10.257  0.0000E+00  0.1920E+03
    -10.081  0.0000E+00  0.1920E+03
     -9.904  0.0000E+00  0.1920E+03
     -9.728  0.0000E+00  0.1920E+03
     -9.552  0.0000E+00  0.1920E+03
     -9.376  0.0000E+00  0.1920E+03
     -9.199  0.1618E-03  0.1920E+03
     -9.023  0.6298E-15  0.1922E+03
     -8.847  0.0000E+00  0.1938E+03
     -8.670  0.0000E+00  0.1968E+03
     -8.494  0.0000E+00  0.1988E+03
     -8.318  0.4724E-15  0.2002E+03
     -8.142  0.2347E+01  0.2067E+03
     -7.965  0.0000E+00  0.2122E+03
     -7.789  0.3955E+02  0.2222E+03
     -7.613  0.6974E+02  0.2360E+03
     -7.436  0.4738E+01  0.2478E+03
     -7.260  0.0000E+00  0.2560E+03
     -7.084  0.0000E+00  0.2560E+03
     -6.908  0.0000E+00  0.2560E+03
     -6.731  0.0000E+00  0.2560E+03
     -6.555  0.0000E+00  0.2560E+03
     -6.379  0.0000E+00  0.2560E+03
     -6.203  0.0000E+00  0.2560E+03
     -6.026  0.0000E+00  0.2560E+03
     -5.850  0.0000E+00  0.2560E+03
     -5.674  0.0000E+00  0.2560E+03
     -5.497  0.0000E+00  0.2560E+03
     -5.321  0.0000E+00  0.2560E+03
     -5.145  0.0000E+00  0.2560E+03
     -4.969  0.0000E+00  0.2560E+03
     -4.792  0.0000E+00  0.2560E+03
     -4.616  0.0000E+00  0.2560E+03
     -4.440  0.0000E+00  0.2560E+03
     -4.263  0.0000E+00  0.2560E+03
     -4.087  0.0000E+00  0.2560E+03
     -3.911  0.0000E+00  0.2560E+03
     -3.735  0.0000E+00  0.2560E+03
     -3.558  0.0000E+00  0.2560E+03
     -3.382  0.0000E+00  0.2560E+03
     -3.206  0.0000E+00  0.2560E+03
     -3.030  0.0000E+00  0.2560E+03
     -2.853  0.0000E+00  0.2560E+03
     -2.677  0.0000E+00  0.2560E+03
     -2.501  0.0000E+00  0.2560E+03
     -2.324  0.0000E+00  0.2560E+03
     -2.148  0.0000E+00  0.2560E+03
     -1.972  0.0000E+00  0.2560E+03
     -1.796  0.0000E+00  0.2560E+03
     -1.619  0.0000E+00  0.2560E+03
     -1.443  0.0000E+00  0.2560E+03
     -1.267  0.0000E+00  0.2570E+03
     -1.091  0.0000E+00  0.2570E+03
     -0.914  0.3403E+02  0.2630E+03
     -0.738  0.8133E+00  0.2691E+03
     -0.562  0.2856E+02  0.2748E+03
     -0.385  0.0000E+00  0.2788E+03
     -0.209  0.1353E+03  0.3026E+03
     -0.033  0.0000E+00  0.3042E+03
      0.143  0.0000E+00  0.3042E+03
      0.320  0.3370E+02  0.3102E+03
      0.496  0.5449E+02  0.3199E+03
      0.672  0.9015E-05  0.3223E+03
      0.849  0.0000E+00  0.3242E+03
      1.025  0.8509E+01  0.3258E+03
      1.201  0.2553E+02  0.3302E+03
      1.377  0.5748E+02  0.3434E+03
      1.554  0.3404E+02  0.3543E+03
      1.730  0.0000E+00  0.3572E+03
      1.906  0.8509E+01  0.3588E+03
      2.082  0.5444E+02  0.3743E+03
      2.259  0.4964E+02  0.3888E+03
      2.435  0.3404E+02  0.4007E+03
      2.611  0.2554E+02  0.4053E+03
      2.788  0.3398E+02  0.4172E+03
      2.964  0.7970E+02  0.4353E+03
      3.140  0.0000E+00  0.4372E+03
      3.316  0.3971E+02  0.4442E+03
      3.493  0.1694E+02  0.4472E+03
      3.669  0.0000E+00  0.4480E+03
      3.845  0.0000E+00  0.4480E+03
      4.022  0.0000E+00  0.4480E+03
      4.198  0.0000E+00  0.4480E+03
      4.374  0.0000E+00  0.4480E+03
      4.550  0.0000E+00  0.4480E+03
      4.727  0.0000E+00  0.4480E+03
      4.903  0.0000E+00  0.4480E+03
      5.079  0.0000E+00  0.4480E+03
      5.255  0.0000E+00  0.4480E+03
      5.432  0.0000E+00  0.4480E+03
      5.608  0.0000E+00  0.4480E+03
      5.784  0.0000E+00  0.4480E+03
      5.961  0.0000E+00  0.4480E+03
      6.137  0.0000E+00  0.4480E+03
      6.313  0.3436E+00  0.4481E+03
      6.489  0.0000E+00  0.4488E+03
      6.666  0.0000E+00  0.4488E+03
      6.842  0.0000E+00  0.4488E+03
      7.018  0.8509E+01  0.4502E+03
      7.194  0.0000E+00  0.4502E+03
      7.371  0.1535E+02  0.4532E+03
      7.547  0.0000E+00  0.4565E+03
      7.723  0.0000E+00  0.4565E+03
      7.900  0.3365E+01  0.4578E+03
      8.076  0.5673E+01  0.4703E+03
      8.252  0.0000E+00  0.4718E+03
      8.428  0.8598E-01  0.4718E+03
      8.605  0.8509E+01  0.4767E+03
      8.781  0.2134E+02  0.4805E+03
      8.957  0.3224E+02  0.5019E+03
      9.134  0.3096E+02  0.5092E+03
      9.310  0.0000E+00  0.5188E+03
      9.486  0.0000E+00  0.5248E+03
      9.662  0.1702E+02  0.5278E+03
      9.839  0.0000E+00  0.5278E+03
     10.015  0.2553E+02  0.5322E+03
     10.191  0.0000E+00  0.5322E+03
     10.367  0.0000E+00  0.5352E+03
     10.544  0.0000E+00  0.5360E+03
     10.720  0.0000E+00  0.5360E+03
     10.896  0.0000E+00  0.5360E+03
     11.073  0.0000E+00  0.5360E+03
     11.249  0.0000E+00  0.5360E+03
     11.425  0.0000E+00  0.5360E+03
     11.601  0.0000E+00  0.5360E+03
     11.778  0.0000E+00  0.5360E+03
     11.954  0.0000E+00  0.5360E+03
     12.130  0.0000E+00  0.5360E+03
     12.307  0.0000E+00  0.5360E+03
     12.483  0.0000E+00  0.5360E+03
     12.659  0.0000E+00  0.5360E+03
     12.835  0.0000E+00  0.5360E+03
