   64   64    1    1
  0.1738377E+02  0.1036195E-08  0.1036195E-08  0.1036195E-08  0.5000000E-15
  1.000000000000000E-004
  CAR 
 unknown system                          
    448      6    268
 
  0.0000000E+00  0.0000000E+00  0.0000000E+00  0.1250000E+00
    1      -37.643867
    2      -37.643774
    3      -37.643460
    4      -37.643460
    5      -37.642892
    6      -37.642892
    7      -37.642738
    8      -37.641691
    9      -37.641689
   10      -37.641603
   11      -37.641603
   12      -37.641576
   13      -37.641451
   14      -37.641450
   15      -37.641434
   16      -37.641141
   17      -37.641140
   18      -37.641116
   19      -37.641108
   20      -37.641108
   21      -37.640938
   22      -37.640697
   23      -37.640640
   24      -37.640462
   25      -37.640462
   26      -37.640377
   27      -37.640373
   28      -37.640373
   29      -37.640330
   30      -37.640260
   31      -37.640260
   32      -37.639520
   33      -37.639323
   34      -37.639277
   35      -37.639277
   36      -37.639209
   37      -37.639161
   38      -37.639120
   39      -37.639099
   40      -37.639099
   41      -37.639050
   42      -37.639050
   43      -37.638993
   44      -37.638819
   45      -37.638811
   46      -37.638808
   47      -37.638807
   48      -37.638807
   49      -37.638803
   50      -37.638738
   51      -37.638668
   52      -37.638668
   53      -37.638660
   54      -37.638595
   55      -37.638540
   56      -37.638531
   57      -37.638531
   58      -37.638479
   59      -37.638042
   60      -37.638042
   61      -37.637686
   62      -37.637682
   63      -37.637607
   64      -37.637392
   65      -37.637392
   66      -37.637330
   67      -37.637297
   68      -37.637178
   69      -37.637177
   70      -37.637070
   71      -37.637070
   72      -37.636998
   73      -37.636904
   74      -37.636734
   75      -37.636734
   76      -37.636723
   77      -37.636723
   78      -37.636715
   79      -37.636674
   80      -37.636674
   81      -37.636650
   82      -37.636512
   83      -37.636512
   84      -37.636359
   85      -37.636359
   86      -37.636354
   87      -37.636308
   88      -37.636156
   89      -37.636006
   90      -37.635833
   91      -37.635833
   92      -37.635315
   93      -37.635234
   94      -37.635129
   95      -37.634969
   96      -37.634969
   97       -9.173168
   98       -8.410124
   99       -8.407717
  100       -8.407717
  101       -8.407716
  102       -8.407713
  103       -8.405418
  104       -7.890297
  105       -7.885737
  106       -7.885737
  107       -7.885648
  108       -7.885640
  109       -7.885636
  110       -7.885636
  111       -7.885632
  112       -7.885630
  113       -7.885531
  114       -7.885531
  115       -7.881184
  116       -7.802470
  117       -7.802470
  118       -7.802465
  119       -7.802382
  120       -7.424328
  121       -7.424264
  122       -7.424261
  123       -7.375476
  124       -7.373266
  125       -7.373264
  126       -7.373264
  127       -7.373260
  128       -7.370882
  129       -1.377208
  130       -1.377208
  131       -1.377204
  132       -1.377193
  133       -0.731778
  134       -0.731770
  135       -0.731770
  136       -0.210469
  137       -0.210469
  138       -0.209856
  139       -0.209339
  140       -0.209174
  141       -0.209112
  142       -0.209112
  143       -0.209109
  144       -0.208884
  145       -0.208366
  146       -0.207787
  147       -0.207787
  148        0.251629
  149        0.251629
  150        0.252880
  151        0.252880
  152        0.253290
  153        0.253292
  154        0.253292
  155        0.253311
  156        0.253705
  157        0.253705
  158        0.254951
  159        0.254951
  160        0.968102
  161        0.968884
  162        0.968912
  163        0.968912
  164        0.968938
  165        0.969769
  166        1.155693
  167        1.155743
  168        1.156103
  169        1.156103
  170        1.156361
  171        1.156969
  172        1.170650
  173        1.170650
  174        1.171303
  175        1.171584
  176        1.171599
  177        1.171620
  178        1.171775
  179        1.171775
  180        1.171902
  181        1.172301
  182        1.172645
  183        1.172645
  184        1.853875
  185        1.853875
  186        1.853875
  187        1.853879
  188        1.853883
  189        1.853883
  190        2.583057
  191        2.583057
  192        2.583807
  193        2.583807
  194        2.584140
  195        2.584258
  196        2.584262
  197        2.584262
  198        2.584721
  199        2.584721
  200        2.585439
  201        2.585439
  202        2.929150
  203        2.929150
  204        2.929789
  205        2.930447
  206        2.930461
  207        2.930462
  208        2.930462
  209        2.930463
  210        2.930555
  211        2.931142
  212        2.931680
  213        2.931680
  214        2.971818
  215        2.971818
  216        2.971818
  217        2.971820
  218        2.971833
  219        2.971861
  220        2.971914
  221        2.971914
  222        3.587800
  223        3.587800
  224        3.587812
  225        6.323008
  226        6.323012
  227        6.323022
  228        7.283690
  229        7.788876
  230        7.788876
  231        7.788887
  232        8.007458
  233        8.007462
  234        8.007468
  235        8.007468
  236        8.574911
  237        8.575418
  238        8.575434
  239        8.575434
  240        8.575441
  241        8.575943
  242        8.851560
  243        8.852214
  244        8.852226
  245        8.852226
  246        8.852235
  247        8.852898
  248        9.039611
  249        9.040871
  250        9.040871
  251        9.040927
  252        9.040940
  253        9.042261
  254        9.183384
  255        9.183929
  256        9.183929
  257        9.184454
  258        9.184537
  259        9.184549
  260        9.184569
  261        9.184569
  262        9.184627
  263        9.185182
  264        9.185182
  265        9.185713
  266       10.431561
  267       10.431568
  268       10.431578
 
  0.5000000E+00  0.0000000E+00  0.0000000E+00  0.1250000E+00
    1      -37.643546
    2      -37.643407
    3      -37.642847
    4      -37.642847
    5      -37.642763
    6      -37.642763
    7      -37.642379
    8      -37.642162
    9      -37.642162
   10      -37.641700
   11      -37.641697
   12      -37.641650
   13      -37.641487
   14      -37.641487
   15      -37.641404
   16      -37.641401
   17      -37.641401
   18      -37.641268
   19      -37.641268
   20      -37.641262
   21      -37.641244
   22      -37.641020
   23      -37.640766
   24      -37.640757
   25      -37.640757
   26      -37.640552
   27      -37.640214
   28      -37.640152
   29      -37.640152
   30      -37.640064
   31      -37.639891
   32      -37.639849
   33      -37.639849
   34      -37.639724
   35      -37.639575
   36      -37.639536
   37      -37.639536
   38      -37.639526
   39      -37.639494
   40      -37.639494
   41      -37.639466
   42      -37.638845
   43      -37.638845
   44      -37.638620
   45      -37.638615
   46      -37.638458
   47      -37.638458
   48      -37.638290
   49      -37.638290
   50      -37.638290
   51      -37.638230
   52      -37.638036
   53      -37.637999
   54      -37.637896
   55      -37.637896
   56      -37.637832
   57      -37.637832
   58      -37.637775
   59      -37.637775
   60      -37.637699
   61      -37.637677
   62      -37.637609
   63      -37.637588
   64      -37.637540
   65      -37.637432
   66      -37.637384
   67      -37.637384
   68      -37.637336
   69      -37.637328
   70      -37.637209
   71      -37.637053
   72      -37.636890
   73      -37.636881
   74      -37.636881
   75      -37.636743
   76      -37.636743
   77      -37.636673
   78      -37.636673
   79      -37.636666
   80      -37.636666
   81      -37.636640
   82      -37.636523
   83      -37.636452
   84      -37.636397
   85      -37.636397
   86      -37.636349
   87      -37.636349
   88      -37.636156
   89      -37.635914
   90      -37.635789
   91      -37.635789
   92      -37.635570
   93      -37.635261
   94      -37.635074
   95      -37.635044
   96      -37.635044
   97       -8.965505
   98       -8.963264
   99       -8.259784
  100       -8.256681
  101       -8.256681
  102       -8.256294
  103       -8.256047
  104       -8.255662
  105       -8.255662
  106       -8.252683
  107       -7.848169
  108       -7.845663
  109       -7.844777
  110       -7.844777
  111       -7.844726
  112       -7.844726
  113       -7.843850
  114       -7.841470
  115       -7.746487
  116       -7.744649
  117       -7.522382
  118       -7.519429
  119       -7.519429
  120       -7.519178
  121       -7.518859
  122       -7.518608
  123       -7.518608
  124       -7.515655
  125       -7.401099
  126       -7.399003
  127       -7.398980
  128       -7.396775
  129       -0.940879
  130       -0.940879
  131       -0.940716
  132       -0.939728
  133       -0.939202
  134       -0.938239
  135       -0.938082
  136       -0.938082
  137       -0.476826
  138       -0.476826
  139       -0.474650
  140       -0.474650
  141       -0.252680
  142       -0.250137
  143       -0.228505
  144       -0.226147
  145       -0.225801
  146       -0.225801
  147       -0.225367
  148       -0.225367
  149       -0.225013
  150       -0.222393
  151        0.435699
  152        0.435699
  153        0.436531
  154        0.436662
  155        0.436674
  156        0.436809
  157        0.437547
  158        0.437547
  159        0.492598
  160        0.492598
  161        0.493299
  162        0.493766
  163        0.494496
  164        0.494960
  165        0.495737
  166        0.495737
  167        1.259400
  168        1.259400
  169        1.260705
  170        1.260705
  171        1.466688
  172        1.469027
  173        1.469354
  174        1.471658
  175        2.048418
  176        2.048418
  177        2.050548
  178        2.050548
  179        2.076201
  180        2.076201
  181        2.076955
  182        2.077101
  183        2.077725
  184        2.077871
  185        2.078227
  186        2.078227
  187        2.084458
  188        2.084988
  189        2.084988
  190        2.085369
  191        2.085469
  192        2.086275
  193        2.086296
  194        2.086296
  195        2.176545
  196        2.179221
  197        2.179439
  198        2.179439
  199        2.179850
  200        2.179850
  201        2.180043
  202        2.182770
  203        2.551265
  204        2.553301
  205        2.880601
  206        2.883530
  207        2.884136
  208        2.884136
  209        2.884254
  210        2.884254
  211        2.884863
  212        2.887876
  213        2.948988
  214        2.948988
  215        2.950941
  216        2.950949
  217        2.950970
  218        2.951006
  219        2.952928
  220        2.952928
  221        3.249279
  222        3.249279
  223        3.250930
  224        3.250930
  225        6.966586
  226        6.967897
  227        7.360611
  228        7.361373
  229        7.361878
  230        7.362628
  231        8.106944
  232        8.109309
  233        8.444452
  234        8.445274
  235        8.800270
  236        8.800596
  237        8.800596
  238        8.800661
  239        8.800725
  240        8.800744
  241        8.800744
  242        8.801131
  243        8.825027
  244        8.825039
  245        8.825491
  246        8.825491
  247        8.826977
  248        8.826977
  249        8.827457
  250        8.827471
  251        8.921907
  252        8.921907
  253        8.924590
  254        8.924590
  255        9.373951
  256        9.374367
  257        9.374367
  258        9.374842
  259        9.375055
  260        9.375529
  261        9.375529
  262        9.375933
  263        9.941714
  264        9.943107
  265        9.944795
  266        9.946269
  267        9.950366
  268        9.977850
 
  0.0000000E+00  0.5000000E+00  0.0000000E+00  0.2500000E+00
    1      -37.643260
    2      -37.643112
    3      -37.642848
    4      -37.642840
    5      -37.642760
    6      -37.642715
    7      -37.642682
    8      -37.642400
    9      -37.642329
   10      -37.642263
   11      -37.642231
   12      -37.641994
   13      -37.641919
   14      -37.641900
   15      -37.641289
   16      -37.641101
   17      -37.641093
   18      -37.641034
   19      -37.640959
   20      -37.640864
   21      -37.640679
   22      -37.640563
   23      -37.640433
   24      -37.640344
   25      -37.640313
   26      -37.640295
   27      -37.640244
   28      -37.640232
   29      -37.640061
   30      -37.640024
   31      -37.640010
   32      -37.639938
   33      -37.639929
   34      -37.639926
   35      -37.639897
   36      -37.639825
   37      -37.639772
   38      -37.639763
   39      -37.639504
   40      -37.639310
   41      -37.639212
   42      -37.639158
   43      -37.639012
   44      -37.638873
   45      -37.638671
   46      -37.638636
   47      -37.638625
   48      -37.638467
   49      -37.638412
   50      -37.638334
   51      -37.638089
   52      -37.638053
   53      -37.638053
   54      -37.637987
   55      -37.637808
   56      -37.637807
   57      -37.637805
   58      -37.637611
   59      -37.637519
   60      -37.637517
   61      -37.637516
   62      -37.637440
   63      -37.637414
   64      -37.637405
   65      -37.637402
   66      -37.637363
   67      -37.637315
   68      -37.637296
   69      -37.637268
   70      -37.637240
   71      -37.637225
   72      -37.637216
   73      -37.637203
   74      -37.637077
   75      -37.636924
   76      -37.636911
   77      -37.636776
   78      -37.636709
   79      -37.636652
   80      -37.636640
   81      -37.636639
   82      -37.636621
   83      -37.636544
   84      -37.636378
   85      -37.636129
   86      -37.636087
   87      -37.636081
   88      -37.635925
   89      -37.635855
   90      -37.635824
   91      -37.635602
   92      -37.635395
   93      -37.635348
   94      -37.635230
   95      -37.635187
   96      -37.635165
   97       -8.964401
   98       -8.964372
   99       -8.259720
  100       -8.256330
  101       -8.256173
  102       -8.256171
  103       -8.256169
  104       -8.256166
  105       -8.256015
  106       -8.252744
  107       -7.845140
  108       -7.844815
  109       -7.844762
  110       -7.844757
  111       -7.844753
  112       -7.844746
  113       -7.844690
  114       -7.844564
  115       -7.745591
  116       -7.745501
  117       -7.522452
  118       -7.519187
  119       -7.519019
  120       -7.519017
  121       -7.519016
  122       -7.519015
  123       -7.518854
  124       -7.515579
  125       -7.398996
  126       -7.398993
  127       -7.398992
  128       -7.398855
  129       -0.939753
  130       -0.939553
  131       -0.939543
  132       -0.939517
  133       -0.939424
  134       -0.939423
  135       -0.939416
  136       -0.939203
  137       -0.475742
  138       -0.475735
  139       -0.475734
  140       -0.475733
  141       -0.251439
  142       -0.251260
  143       -0.227709
  144       -0.225730
  145       -0.225586
  146       -0.225580
  147       -0.225578
  148       -0.225573
  149       -0.225433
  150       -0.223294
  151        0.435656
  152        0.436093
  153        0.436383
  154        0.436555
  155        0.436666
  156        0.436667
  157        0.437234
  158        0.437675
  159        0.492950
  160        0.494082
  161        0.494130
  162        0.494132
  163        0.494180
  164        0.494187
  165        0.494404
  166        0.495351
  167        1.260039
  168        1.260047
  169        1.260052
  170        1.260053
  171        1.469169
  172        1.469192
  173        1.469196
  174        1.469197
  175        2.049309
  176        2.049455
  177        2.049525
  178        2.049528
  179        2.075783
  180        2.076346
  181        2.077039
  182        2.077286
  183        2.077349
  184        2.077408
  185        2.077537
  186        2.078300
  187        2.084583
  188        2.084643
  189        2.085423
  190        2.085460
  191        2.086005
  192        2.086144
  193        2.086217
  194        2.087188
  195        2.179328
  196        2.179416
  197        2.179552
  198        2.179599
  199        2.179691
  200        2.179716
  201        2.179942
  202        2.179975
  203        2.552279
  204        2.552281
  205        2.882135
  206        2.884020
  207        2.884176
  208        2.884203
  209        2.884203
  210        2.884206
  211        2.884384
  212        2.886285
  213        2.950703
  214        2.950953
  215        2.950956
  216        2.950957
  217        2.950958
  218        2.950961
  219        2.950972
  220        2.951206
  221        3.250098
  222        3.250098
  223        3.250117
  224        3.250166
  225        6.967239
  226        6.967242
  227        7.361620
  228        7.361623
  229        7.361627
  230        7.361629
  231        8.108099
  232        8.108131
  233        8.444863
  234        8.444872
  235        8.800093
  236        8.800133
  237        8.800666
  238        8.800682
  239        8.800691
  240        8.800700
  241        8.801234
  242        8.801249
  243        8.826006
  244        8.826019
  245        8.826042
  246        8.826085
  247        8.826404
  248        8.826418
  249        8.826477
  250        8.826509
  251        8.923222
  252        8.923223
  253        8.923244
  254        8.923289
  255        9.374006
  256        9.374829
  257        9.374947
  258        9.374948
  259        9.374948
  260        9.374951
  261        9.375065
  262        9.375873
  263        9.942890
  264        9.943465
  265        9.945933
  266        9.947562
  267        9.949957
  268        9.971788
 
  0.5000000E+00  0.5000000E+00  0.0000000E+00  0.2500000E+00
    1      -37.643202
    2      -37.643052
    3      -37.642787
    4      -37.642695
    5      -37.642646
    6      -37.642530
    7      -37.642477
    8      -37.642224
    9      -37.642203
   10      -37.642144
   11      -37.641995
   12      -37.641932
   13      -37.641814
   14      -37.641777
   15      -37.641483
   16      -37.641477
   17      -37.641461
   18      -37.641432
   19      -37.641233
   20      -37.641211
   21      -37.641156
   22      -37.641116
   23      -37.641073
   24      -37.640995
   25      -37.640981
   26      -37.640682
   27      -37.640663
   28      -37.640592
   29      -37.640246
   30      -37.640157
   31      -37.639992
   32      -37.639807
   33      -37.639765
   34      -37.639460
   35      -37.639190
   36      -37.639168
   37      -37.639086
   38      -37.639071
   39      -37.639062
   40      -37.638901
   41      -37.638850
   42      -37.638832
   43      -37.638663
   44      -37.638473
   45      -37.638467
   46      -37.638433
   47      -37.638388
   48      -37.638331
   49      -37.638245
   50      -37.638240
   51      -37.638214
   52      -37.638173
   53      -37.638133
   54      -37.638106
   55      -37.638072
   56      -37.638024
   57      -37.637958
   58      -37.637931
   59      -37.637905
   60      -37.637773
   61      -37.637772
   62      -37.637691
   63      -37.637626
   64      -37.637580
   65      -37.637563
   66      -37.637436
   67      -37.637370
   68      -37.637221
   69      -37.637192
   70      -37.637186
   71      -37.637155
   72      -37.637124
   73      -37.637100
   74      -37.637094
   75      -37.637039
   76      -37.636964
   77      -37.636938
   78      -37.636933
   79      -37.636923
   80      -37.636822
   81      -37.636731
   82      -37.636702
   83      -37.636575
   84      -37.636314
   85      -37.636195
   86      -37.636118
   87      -37.636101
   88      -37.636036
   89      -37.635857
   90      -37.635714
   91      -37.635508
   92      -37.635411
   93      -37.635259
   94      -37.635204
   95      -37.635164
   96      -37.635004
   97       -8.770696
   98       -8.768991
   99       -8.768433
  100       -8.766780
  101       -8.134253
  102       -8.131413
  103       -8.131306
  104       -8.130946
  105       -8.130776
  106       -8.130419
  107       -8.130308
  108       -8.127584
  109       -7.673596
  110       -7.670714
  111       -7.670606
  112       -7.670290
  113       -7.670184
  114       -7.669863
  115       -7.669762
  116       -7.667211
  117       -7.604074
  118       -7.601463
  119       -7.601389
  120       -7.601053
  121       -7.600944
  122       -7.600605
  123       -7.600537
  124       -7.597644
  125       -7.423286
  126       -7.421694
  127       -7.421214
  128       -7.419506
  129       -0.842093
  130       -0.841895
  131       -0.841387
  132       -0.840536
  133       -0.840403
  134       -0.839580
  135       -0.839070
  136       -0.838883
  137       -0.278105
  138       -0.277303
  139       -0.275677
  140       -0.275387
  141       -0.275166
  142       -0.274941
  143       -0.273515
  144       -0.273229
  145       -0.266446
  146       -0.265551
  147       -0.265171
  148       -0.264999
  149       -0.264992
  150       -0.264172
  151       -0.263968
  152       -0.263712
  153       -0.224890
  154       -0.223432
  155       -0.222790
  156       -0.221185
  157        0.304327
  158        0.304786
  159        0.305434
  160        0.305895
  161        1.372168
  162        1.372940
  163        1.373640
  164        1.373758
  165        1.373988
  166        1.374120
  167        1.374794
  168        1.375532
  169        1.474423
  170        1.476522
  171        1.476871
  172        1.477037
  173        1.477174
  174        1.477362
  175        1.477687
  176        1.479758
  177        1.592191
  178        1.592229
  179        1.593185
  180        1.593232
  181        1.942432
  182        1.943112
  183        1.944262
  184        1.944387
  185        1.944557
  186        1.944683
  187        1.945827
  188        1.946476
  189        2.179270
  190        2.179841
  191        2.181382
  192        2.181965
  193        2.392992
  194        2.393766
  195        2.394274
  196        2.394608
  197        2.394834
  198        2.395180
  199        2.395673
  200        2.396413
  201        2.634428
  202        2.635192
  203        2.635221
  204        2.635688
  205        2.635806
  206        2.636272
  207        2.636303
  208        2.637057
  209        2.763731
  210        2.764915
  211        2.766349
  212        2.766409
  213        2.766433
  214        2.766495
  215        2.767940
  216        2.769173
  217        2.844715
  218        2.845743
  219        2.846246
  220        2.847317
  221        3.472801
  222        3.473334
  223        3.474983
  224        3.475533
  225        7.425989
  226        7.426114
  227        7.427403
  228        7.427532
  229        7.907675
  230        7.908261
  231        7.908288
  232        7.908461
  233        7.909040
  234        7.909208
  235        7.909241
  236        7.909816
  237        8.776594
  238        8.777674
  239        8.778673
  240        8.778694
  241        8.778766
  242        8.778787
  243        8.779795
  244        8.780852
  245        8.947638
  246        8.948318
  247        8.948519
  248        8.949184
  249        9.123523
  250        9.123573
  251        9.123682
  252        9.123786
  253        9.124365
  254        9.124453
  255        9.124512
  256        9.124639
  257        9.192286
  258        9.192765
  259        9.194271
  260        9.194536
  261        9.195048
  262        9.195316
  263        9.196817
  264        9.197286
  265        9.603182
  266        9.603804
  267        9.603995
  268        9.604514
 
  0.0000000E+00  0.5000000E+00  0.5000000E+00  0.1250000E+00
    1      -37.643129
    2      -37.642995
    3      -37.642995
    4      -37.642979
    5      -37.642449
    6      -37.642449
    7      -37.642416
    8      -37.642403
    9      -37.642133
   10      -37.641813
   11      -37.641813
   12      -37.641751
   13      -37.641751
   14      -37.641627
   15      -37.641605
   16      -37.641592
   17      -37.641586
   18      -37.641501
   19      -37.641494
   20      -37.641494
   21      -37.641128
   22      -37.641024
   23      -37.641024
   24      -37.640938
   25      -37.640899
   26      -37.640858
   27      -37.640858
   28      -37.640561
   29      -37.639976
   30      -37.639976
   31      -37.639848
   32      -37.639808
   33      -37.639688
   34      -37.639556
   35      -37.639422
   36      -37.639187
   37      -37.639187
   38      -37.639037
   39      -37.639037
   40      -37.638717
   41      -37.638656
   42      -37.638653
   43      -37.638653
   44      -37.638653
   45      -37.638643
   46      -37.638643
   47      -37.638578
   48      -37.638578
   49      -37.638578
   50      -37.638577
   51      -37.638248
   52      -37.638241
   53      -37.638155
   54      -37.638126
   55      -37.638057
   56      -37.638057
   57      -37.637917
   58      -37.637916
   59      -37.637897
   60      -37.637897
   61      -37.637523
   62      -37.637489
   63      -37.637472
   64      -37.637471
   65      -37.637430
   66      -37.637217
   67      -37.637152
   68      -37.637142
   69      -37.637105
   70      -37.637105
   71      -37.637009
   72      -37.637009
   73      -37.636926
   74      -37.636914
   75      -37.636914
   76      -37.636914
   77      -37.636914
   78      -37.636876
   79      -37.636876
   80      -37.636622
   81      -37.636622
   82      -37.636616
   83      -37.636585
   84      -37.636518
   85      -37.636518
   86      -37.636411
   87      -37.636360
   88      -37.636268
   89      -37.636238
   90      -37.635767
   91      -37.635767
   92      -37.635577
   93      -37.635078
   94      -37.634995
   95      -37.634995
   96      -37.634947
   97       -8.768782
   98       -8.768713
   99       -8.768711
  100       -8.768711
  101       -8.131457
  102       -8.130893
  103       -8.130893
  104       -8.130864
  105       -8.130861
  106       -8.130829
  107       -8.130829
  108       -8.130363
  109       -7.670927
  110       -7.670247
  111       -7.670239
  112       -7.670239
  113       -7.670236
  114       -7.670234
  115       -7.670234
  116       -7.670231
  117       -7.601023
  118       -7.601023
  119       -7.600999
  120       -7.600995
  121       -7.600994
  122       -7.600973
  123       -7.600973
  124       -7.600375
  125       -7.421455
  126       -7.421453
  127       -7.421453
  128       -7.421329
  129       -0.840879
  130       -0.840879
  131       -0.840503
  132       -0.840472
  133       -0.840470
  134       -0.840468
  135       -0.840092
  136       -0.840092
  137       -0.275772
  138       -0.275772
  139       -0.275397
  140       -0.275278
  141       -0.275271
  142       -0.275270
  143       -0.275270
  144       -0.275270
  145       -0.265677
  146       -0.265085
  147       -0.265085
  148       -0.265054
  149       -0.264932
  150       -0.264835
  151       -0.264426
  152       -0.264426
  153       -0.223109
  154       -0.223107
  155       -0.223107
  156       -0.222481
  157        0.305111
  158        0.305111
  159        0.305112
  160        0.305117
  161        1.373431
  162        1.373431
  163        1.373874
  164        1.373877
  165        1.373879
  166        1.373883
  167        1.374291
  168        1.374291
  169        1.477019
  170        1.477103
  171        1.477105
  172        1.477105
  173        1.477106
  174        1.477111
  175        1.477111
  176        1.477111
  177        1.592709
  178        1.592710
  179        1.592710
  180        1.592711
  181        1.944462
  182        1.944462
  183        1.944472
  184        1.944474
  185        1.944475
  186        1.944476
  187        1.944476
  188        1.944476
  189        2.180599
  190        2.180599
  191        2.180613
  192        2.180615
  193        2.394630
  194        2.394630
  195        2.394709
  196        2.394720
  197        2.394721
  198        2.394721
  199        2.394818
  200        2.394818
  201        2.635493
  202        2.635676
  203        2.635708
  204        2.635708
  205        2.635791
  206        2.635791
  207        2.635820
  208        2.635893
  209        2.766161
  210        2.766161
  211        2.766368
  212        2.766402
  213        2.766441
  214        2.766483
  215        2.766685
  216        2.766685
  217        2.845993
  218        2.845999
  219        2.845999
  220        2.846187
  221        3.474157
  222        3.474162
  223        3.474164
  224        3.474164
  225        7.426758
  226        7.426760
  227        7.426765
  228        7.426765
  229        7.908728
  230        7.908747
  231        7.908747
  232        7.908749
  233        7.908751
  234        7.908755
  235        7.908755
  236        7.908762
  237        8.777942
  238        8.778066
  239        8.778529
  240        8.778529
  241        8.778933
  242        8.778933
  243        8.779344
  244        8.779516
  245        8.948412
  246        8.948412
  247        8.948418
  248        8.948440
  249        9.123549
  250        9.123549
  251        9.124011
  252        9.124064
  253        9.124072
  254        9.124073
  255        9.124507
  256        9.124507
  257        9.194789
  258        9.194790
  259        9.194791
  260        9.194793
  261        9.194793
  262        9.194807
  263        9.194837
  264        9.194837
  265        9.603377
  266        9.603562
  267        9.603774
  268        9.604002
 