 vasp.5.3.5 31Mar14 (build Nov 07 2014 11:36:17) complex                        
  
 executed on             LinuxIFC date 2015.10.15  02:20:00
 running on   20 total cores
 distrk:  each k-point on   20 cores,    1 groups
 distr:  one band on NCORES_PER_BAND=   5 cores,    4 groups


--------------------------------------------------------------------------------------------------------


 INCAR:
 POTCAR:    PAW_PBE Mg_pv 13Apr2007               
 POTCAR:    PAW_PBE S 06Sep2000                   
 POTCAR:    PAW_PBE Mg_pv 13Apr2007               
   VRHFIN =Mg: p6s2                                                             
   LEXCH  = PE                                                                  
   EATOM  =  1056.7344 eV,   77.6678 Ry                                         
                                                                                
   TITEL  = PAW_PBE Mg_pv 13Apr2007                                             
   LULTRA =        F    use ultrasoft PP ?                                      
   IUNSCR =        1    unscreen: 0-lin 1-nonlin 2-no                           
   RPACOR =    1.500    partial core radius                                     
   POMASS =   24.305; ZVAL   =    8.000    mass and valenz                      
   RCORE  =    2.000    outmost cutoff radius                                   
   RWIGS  =    2.000; RWIGS  =    1.058    wigner-seitz radius (au A)           
   ENMAX  =  403.929; ENMIN  =  302.947 eV                                      
   RCLOC  =    1.506    cutoff for local pot                                    
   LCOR   =        T    correct aug charges                                     
   LPAW   =        T    paw PP                                                  
   EAUG   =  758.780                                                            
   DEXC   =    0.000                                                            
   RMAX   =    2.045    core radius for proj-oper                               
   RAUG   =    1.300    factor for augmentation sphere                          
   RDEP   =    2.025    radius for radial grids                                 
   RDEPT  =    1.557    core radius for aug-charge                              
                                                                                
   Atomic configuration                                                         
    5 entries                                                                   
     n  l   j            E        occ.                                          
     1  0  0.50     -1259.6230   2.0000                                         
     2  0  0.50       -79.8442   2.0000                                         
     2  1  1.50       -46.6121   6.0000                                         
     3  0  0.50        -4.7055   2.0000                                         
     3  2  1.50        -1.3606   0.0000                                         
   Description                                                                  
     l       E           TYP  RCUT    TYP  RCUT                                 
     1    -46.6121073     23  1.600                                             
     1      2.7211652     23  1.600                                             
     0     -4.7054661     23  2.000                                             
     0     61.2262170     23  2.000                                             
     2     -1.3605826     23  2.000                                             
  local pseudopotential read in
  partial core-charges read in
  partial kinetic energy density read in
  atomic valenz-charges read in
  non local Contribution for L=           1  read in
    real space projection operators read in
  non local Contribution for L=           1  read in
    real space projection operators read in
  non local Contribution for L=           0  read in
    real space projection operators read in
  non local Contribution for L=           0  read in
    real space projection operators read in
  non local Contribution for L=           2  read in
    real space projection operators read in
    PAW grid and wavefunctions read in
 
   number of l-projection  operators is LMAX  =           5
   number of lm-projection operators is LMMAX =          13
 
 POTCAR:    PAW_PBE S 06Sep2000                   
   VRHFIN =S : s2p4                                                             
   LEXCH  = PE                                                                  
   EATOM  =   276.8230 eV,   20.3459 Ry                                         
                                                                                
   TITEL  = PAW_PBE S 06Sep2000                                                 
   LULTRA =        F    use ultrasoft PP ?                                      
   IUNSCR =        1    unscreen: 0-lin 1-nonlin 2-no                           
   RPACOR =    1.500    partial core radius                                     
   POMASS =   32.066; ZVAL   =    6.000    mass and valenz                      
   RCORE  =    1.900    outmost cutoff radius                                   
   RWIGS  =    2.200; RWIGS  =    1.164    wigner-seitz radius (au A)           
   ENMAX  =  258.689; ENMIN  =  194.016 eV                                      
   ICORE  =        2    local potential                                         
   LCOR   =        T    correct aug charges                                     
   LPAW   =        T    paw PP                                                  
   EAUG   =  335.092                                                            
   DEXC   =    0.000                                                            
   RMAX   =    1.942    core radius for proj-oper                               
   RAUG   =    1.300    factor for augmentation sphere                          
   RDEP   =    1.954    radius for radial grids                                 
   RDEPT  =    1.744    core radius for aug-charge                              
                                                                                
   Atomic configuration                                                         
    6 entries                                                                   
     n  l   j            E        occ.                                          
     1  0  0.50     -2405.8406   2.0000                                         
     2  0  0.50      -211.7007   2.0000                                         
     2  1  1.50      -156.4958   6.0000                                         
     3  0  0.50       -17.2562   2.0000                                         
     3  1  0.50        -7.0085   4.0000                                         
     3  2  1.50        -6.8029   0.0000                                         
   Description                                                                  
     l       E           TYP  RCUT    TYP  RCUT                                 
     0    -17.2561641     23  1.900                                             
     0    -15.8743224     23  1.900                                             
     1     -7.0085400     23  1.900                                             
     1     -2.7779785     23  1.900                                             
     2     -6.8029130     23  1.900                                             
  local pseudopotential read in
  partial core-charges read in
  partial kinetic energy density read in
  atomic valenz-charges read in
  non local Contribution for L=           0  read in
    real space projection operators read in
  non local Contribution for L=           0  read in
    real space projection operators read in
  non local Contribution for L=           1  read in
    real space projection operators read in
  non local Contribution for L=           1  read in
    real space projection operators read in
    PAW grid and wavefunctions read in
 
   number of l-projection  operators is LMAX  =           4
   number of lm-projection operators is LMMAX =           8
 

 ----------------------------------------------------------------------------- 
|                                                                             |
|  ADVICE TO THIS USER RUNNING 'VASP/VAMP'   (HEAR YOUR MASTER'S VOICE ...):  |
|                                                                             |
|      You have a (more or less) 'large supercell' and for larger cells       |
|      it might be more efficient to use real space projection opertators     |
|      So try LREAL= Auto  in the INCAR   file.                               |
|      Mind: At the moment your POTCAR file does not contain real space       |
|       projectors, and has to be modified,  BUT if you                       |
|      want to do an extremely  accurate calculation you might also keep the  |
|      reciprocal projection scheme          (i.e. LREAL=.FALSE.)             |
|                                                                             |
 ----------------------------------------------------------------------------- 


 ----------------------------------------------------------------------------- 
|                                                                             |
|  ADVICE TO THIS USER RUNNING 'VASP/VAMP'   (HEAR YOUR MASTER'S VOICE ...):  |
|                                                                             |
|      You enforced a specific xc-type in the INCAR file,                     |
|      a different type was found on the POTCAR file                          |
|          I HOPE YOU KNOW, WHAT YOU ARE  DOING                               |
|                                                                             |
 ----------------------------------------------------------------------------- 

  PAW_PBE Mg_pv 13Apr2007               :
 energy of atom  1       EATOM=-1056.7344
 kinetic energy error for atom=    0.0336 (will be added to EATOM!!)
  PAW_PBE S 06Sep2000                   :
 energy of atom  2       EATOM= -276.8230
 kinetic energy error for atom=    0.0015 (will be added to EATOM!!)
 
 
 POSCAR:  Mg S                                   
  positions in direct lattice
  No initial velocities read in
 exchange correlation table for  LEXCH =       14
   RHO(1)=    0.500       N(1)  =     2000
   RHO(2)=  100.500       N(2)  =     4000
 


--------------------------------------------------------------------------------------------------------


 ion  position               nearest neighbor table
   1  0.000  0.000  0.000-  34 2.58  49 2.58  53 2.58  57 2.58  59 2.58  33 2.59
   2  0.500  0.000  0.000-  33 2.57  34 2.58  50 2.58  54 2.58  58 2.58  60 2.58
   3  0.000  0.500  0.000-  35 2.58  36 2.58  51 2.58  55 2.58  57 2.58  59 2.58
   4  0.500  0.500  0.000-  35 2.58  36 2.58  52 2.58  56 2.58  58 2.58  60 2.58
   5  0.000  0.000  0.500-  37 2.58  38 2.58  49 2.58  53 2.58  61 2.58  63 2.58
   6  0.500  0.000  0.500-  37 2.58  38 2.58  50 2.58  54 2.58  62 2.58  64 2.58
   7  0.000  0.500  0.500-  39 2.58  40 2.58  51 2.58  55 2.58  61 2.58  63 2.58
   8  0.500  0.500  0.500-  39 2.58  40 2.58  52 2.58  56 2.58  62 2.58  64 2.58
   9  0.000  0.250  0.250-  41 2.58  42 2.58  49 2.58  51 2.58  57 2.58  61 2.58
  10  0.500  0.250  0.250-  41 2.58  42 2.58  50 2.58  52 2.58  58 2.58  62 2.58
  11  0.000  0.750  0.250-  43 2.58  44 2.58  49 2.58  51 2.58  59 2.58  63 2.58
  12  0.500  0.750  0.250-  43 2.58  44 2.58  50 2.58  52 2.58  60 2.58  64 2.58
  13  0.000  0.250  0.750-  45 2.58  46 2.58  53 2.58  55 2.58  57 2.58  61 2.58
  14  0.500  0.250  0.750-  45 2.58  46 2.58  54 2.58  56 2.58  58 2.58  62 2.58
  15  0.000  0.750  0.750-  47 2.58  48 2.58  53 2.58  55 2.58  59 2.58  63 2.58
  16  0.500  0.750  0.750-  47 2.58  48 2.58  54 2.58  56 2.58  60 2.58  64 2.58
  17  0.250  0.000  0.250-  37 2.58  41 2.58  43 2.58  49 2.58  50 2.58  33 2.58
  18  0.750  0.000  0.250-  34 2.58  38 2.58  42 2.58  44 2.58  49 2.58  50 2.58
  19  0.250  0.500  0.250-  35 2.58  39 2.58  41 2.58  43 2.58  51 2.58  52 2.58
  20  0.750  0.500  0.250-  36 2.58  40 2.58  42 2.58  44 2.58  51 2.58  52 2.58
  21  0.250  0.000  0.750-  37 2.58  45 2.58  47 2.58  53 2.58  54 2.58  33 2.58
  22  0.750  0.000  0.750-  34 2.58  38 2.58  46 2.58  48 2.58  53 2.58  54 2.58
  23  0.250  0.500  0.750-  35 2.58  39 2.58  45 2.58  47 2.58  55 2.58  56 2.58
  24  0.750  0.500  0.750-  36 2.58  40 2.58  46 2.58  48 2.58  55 2.58  56 2.58
  25  0.250  0.250  0.000-  35 2.58  41 2.58  45 2.58  57 2.58  58 2.58  33 2.58
  26  0.750  0.250  0.000-  34 2.58  36 2.58  42 2.58  46 2.58  57 2.58  58 2.58
  27  0.250  0.750  0.000-  35 2.58  43 2.58  47 2.58  59 2.58  60 2.58  33 2.58
  28  0.750  0.750  0.000-  34 2.58  36 2.58  44 2.58  48 2.58  59 2.58  60 2.58
  29  0.250  0.250  0.500-  37 2.58  39 2.58  41 2.58  45 2.58  61 2.58  62 2.58
  30  0.750  0.250  0.500-  38 2.58  40 2.58  42 2.58  46 2.58  61 2.58  62 2.58
  31  0.250  0.750  0.500-  37 2.58  39 2.58  43 2.58  47 2.58  63 2.58  64 2.58
  32  0.750  0.750  0.500-  38 2.58  40 2.58  44 2.58  48 2.58  63 2.58  64 2.58
  33  0.251  0.000  0.000-   2 2.57  17 2.58  21 2.58  25 2.58  27 2.58   1 2.59
  34  0.750  0.000  0.000-   1 2.58   2 2.58  18 2.58  22 2.58  26 2.58  28 2.58
  35  0.250  0.500  0.000-   3 2.58   4 2.58  19 2.58  23 2.58  25 2.58  27 2.58
  36  0.750  0.500  0.000-   3 2.58   4 2.58  20 2.58  24 2.58  26 2.58  28 2.58
  37  0.250  0.000  0.500-   5 2.58   6 2.58  17 2.58  21 2.58  29 2.58  31 2.58
  38  0.750  0.000  0.500-   5 2.58   6 2.58  18 2.58  22 2.58  30 2.58  32 2.58
  39  0.250  0.500  0.500-   7 2.58   8 2.58  19 2.58  23 2.58  29 2.58  31 2.58
  40  0.750  0.500  0.500-   7 2.58   8 2.58  20 2.58  24 2.58  30 2.58  32 2.58
  41  0.250  0.250  0.250-   9 2.58  10 2.58  17 2.58  19 2.58  25 2.58  29 2.58
  42  0.750  0.250  0.250-   9 2.58  10 2.58  18 2.58  20 2.58  26 2.58  30 2.58
  43  0.250  0.750  0.250-  11 2.58  12 2.58  17 2.58  19 2.58  27 2.58  31 2.58
  44  0.750  0.750  0.250-  11 2.58  12 2.58  18 2.58  20 2.58  28 2.58  32 2.58
  45  0.250  0.250  0.750-  13 2.58  14 2.58  21 2.58  23 2.58  25 2.58  29 2.58
  46  0.750  0.250  0.750-  13 2.58  14 2.58  22 2.58  24 2.58  26 2.58  30 2.58
  47  0.250  0.750  0.750-  15 2.58  16 2.58  21 2.58  23 2.58  27 2.58  31 2.58
  48  0.750  0.750  0.750-  15 2.58  16 2.58  22 2.58  24 2.58  28 2.58  32 2.58
  49  0.000  0.000  0.250-   1 2.58   5 2.58   9 2.58  11 2.58  17 2.58  18 2.58
  50  0.500  0.000  0.250-   2 2.58   6 2.58  10 2.58  12 2.58  17 2.58  18 2.58
  51  0.000  0.500  0.250-   3 2.58   7 2.58   9 2.58  11 2.58  19 2.58  20 2.58
  52  0.500  0.500  0.250-   4 2.58   8 2.58  10 2.58  12 2.58  19 2.58  20 2.58
  53  0.000  0.000  0.750-   1 2.58   5 2.58  13 2.58  15 2.58  21 2.58  22 2.58
  54  0.500  0.000  0.750-   2 2.58   6 2.58  14 2.58  16 2.58  21 2.58  22 2.58
  55  0.000  0.500  0.750-   3 2.58   7 2.58  13 2.58  15 2.58  23 2.58  24 2.58
  56  0.500  0.500  0.750-   4 2.58   8 2.58  14 2.58  16 2.58  23 2.58  24 2.58
  57  0.000  0.250  0.000-   1 2.58   3 2.58   9 2.58  13 2.58  25 2.58  26 2.58
  58  0.500  0.250  0.000-   2 2.58   4 2.58  10 2.58  14 2.58  25 2.58  26 2.58
  59  0.000  0.750  0.000-   1 2.58   3 2.58  11 2.58  15 2.58  27 2.58  28 2.58
  60  0.500  0.750  0.000-   2 2.58   4 2.58  12 2.58  16 2.58  27 2.58  28 2.58
  61  0.000  0.250  0.500-   5 2.58   7 2.58   9 2.58  13 2.58  29 2.58  30 2.58
  62  0.500  0.250  0.500-   6 2.58   8 2.58  10 2.58  14 2.58  29 2.58  30 2.58
  63  0.000  0.750  0.500-   5 2.58   7 2.58  11 2.58  15 2.58  31 2.58  32 2.58
  64  0.500  0.750  0.500-   6 2.58   8 2.58  12 2.58  16 2.58  31 2.58  32 2.58
 
  LATTYP: Found a simple cubic cell.
 ALAT       =    10.3272900600
  
  Lattice vectors:
  
 A1 = (  10.3272900600,   0.0000000000,   0.0000000000)
 A2 = (   0.0000000000,  10.3272900600,   0.0000000000)
 A3 = (   0.0000000000,   0.0000000000,  10.3272900600)


Analysis of symmetry for initial positions (statically):
=====================================================================
 Subroutine PRICEL returns:
 Original cell was already a primitive cell.
 

 Routine SETGRP: Setting up the symmetry group for a 
 simple cubic supercell.


 Subroutine GETGRP returns: Found  8 space group operations
 (whereof  8 operations were pure point group operations)
 out of a pool of 48 trial point group operations.


The static configuration has the point symmetry C_4v.


Analysis of symmetry for dynamics (positions and initial velocities):
=====================================================================
 Subroutine PRICEL returns:
 Original cell was already a primitive cell.
 

 Routine SETGRP: Setting up the symmetry group for a 
 simple cubic supercell.


 Subroutine GETGRP returns: Found  8 space group operations
 (whereof  8 operations were pure point group operations)
 out of a pool of 48 trial point group operations.


The dynamic configuration has the point symmetry C_4v.
 
 
 KPOINTS: Automatic mesh                          

Automatic generation of k-mesh.
Space group operators:
 irot       det(A)        alpha          n_x          n_y          n_z        tau_x        tau_y        tau_z
    1     1.000000     0.000000     1.000000     0.000000     0.000000     0.000000     0.000000     0.000000
    2    -1.000000   180.000000     0.000000     0.707107     0.707107     0.000000     0.000000     0.000000
    3    -1.000000   179.999999     0.000000     0.000000     1.000000     0.000000     0.000000     0.000000
    4     1.000000    90.000000    -1.000000     0.000000     0.000000     0.000000     0.000000     0.000000
    5     1.000000   180.000000     1.000000     0.000000     0.000000     0.000000     0.000000     0.000000
    6     1.000000    90.000000     1.000000     0.000000     0.000000     0.000000     0.000000     0.000000
    7    -1.000000   180.000000     0.000000     1.000000     0.000000     0.000000     0.000000     0.000000
    8    -1.000000   180.000000     0.000000    -0.707107     0.707107     0.000000     0.000000     0.000000
 
 Subroutine IBZKPT returns following result:
 ===========================================
 
 Found      6 irreducible k-points:
 
 Following reciprocal coordinates:
            Coordinates               Weight
  0.000000  0.000000  0.000000      1.000000
  0.500000  0.000000  0.000000      1.000000
  0.000000  0.500000  0.000000      2.000000
  0.500000  0.500000  0.000000      2.000000
  0.000000  0.500000  0.500000      1.000000
  0.500000  0.500000  0.500000      1.000000
 
 Following cartesian coordinates:
            Coordinates               Weight
  0.000000  0.000000  0.000000      1.000000
  0.048415  0.000000  0.000000      1.000000
  0.000000  0.048415  0.000000      2.000000
  0.048415  0.048415  0.000000      2.000000
  0.000000  0.048415  0.048415      1.000000
  0.048415  0.048415  0.048415      1.000000
 


--------------------------------------------------------------------------------------------------------




 Dimension of arrays:
   k-points           NKPTS =      6   k-points in BZ     NKDIM =      6   number of bands    NBANDS=    268
   number of dos      NEDOS =    301   number of ions     NIONS =     64
   non local maximal  LDIM  =      5   non local SUM 2l+1 LMDIM =     13
   total plane-waves  NPLWV = 512000
   max r-space proj   IRMAX =      1   max aug-charges    IRDMAX= 117346
   dimension x,y,z NGX =    80 NGY =   80 NGZ =   80
   dimension x,y,z NGXF=   160 NGYF=  160 NGZF=  160
   support grid    NGXF=   320 NGYF=  320 NGZF=  320
   ions per type =              32  32
 NGX,Y,Z   is equivalent  to a cutoff of  12.88, 12.88, 12.88 a.u.
 NGXF,Y,Z  is equivalent  to a cutoff of  25.76, 25.76, 25.76 a.u.


 I would recommend the setting:
   dimension x,y,z NGX =    77 NGY =   77 NGZ =   77
 SYSTEM =  unknown system                          
 POSCAR =   Mg S                                   

 Startparameter for this run:
   NWRITE =      2    write-flag & timer
   PREC   = accura    normal or accurate (medium, high low for compatibility)
   ISTART =      0    job   : 0-new  1-cont  2-samecut
   ICHARG =      2    charge: 1-file 2-atom 10-const
   ISPIN  =      1    spin polarized calculation?
   LNONCOLLINEAR =      F non collinear calculations
   LSORBIT =      F    spin-orbit coupling
   INIWAV =      1    electr: 0-lowe 1-rand  2-diag
   LASPH  =      F    aspherical Exc in radial PAW
   METAGGA=      F    non-selfconsistent MetaGGA calc.

 Electronic Relaxation 1
   ENCUT  =  525.1 eV  38.59 Ry    6.21 a.u.  19.30 19.30 19.30*2*pi/ulx,y,z
   ENINI  =  525.1     initial cutoff
   ENAUG  =  758.8 eV  augmentation charge cutoff
   NELM   =     60;   NELMIN=  5; NELMDL= -5     # of ELM steps 
   EDIFF  = 0.1E-07   stopping-criterion for ELM
   LREAL  =      F    real-space projection
   NLSPLINE    = F    spline interpolate recip. space projectors
   LCOMPAT=      F    compatible to vasp.4.4
   GGA_COMPAT  = T    GGA compatible to vasp.4.4-vasp.4.6
   LMAXPAW     = -100 max onsite density
   LMAXMIX     =    2 max onsite mixed and CHGCAR
   VOSKOWN=      0    Vosko Wilk Nusair interpolation
   ROPT   =    0.00000   0.00000
 Ionic relaxation
   EDIFFG = 0.1E-06   stopping-criterion for IOM
   NSW    =      0    number of steps for IOM
   NBLOCK =      1;   KBLOCK =      1    inner block; outer block 
   IBRION =     -1    ionic relax: 0-MD 1-quasi-New 2-CG
   NFREE  =      0    steps in history (QN), initial steepest desc. (CG)
   ISIF   =      2    stress and relaxation
   IWAVPR =     10    prediction:  0-non 1-charg 2-wave 3-comb
   ISYM   =      2    0-nonsym 1-usesym 2-fastsym
   LCORR  =      T    Harris-Foulkes like correction to forces

   POTIM  = 0.5000    time-step for ionic-motion
   TEIN   =    0.0    initial temperature
   TEBEG  =    0.0;   TEEND  =   0.0 temperature during run
   SMASS  =  -3.00    Nose mass-parameter (am)
   estimated Nose-frequenzy (Omega)   =  0.10E-29 period in steps =****** mass=  -0.244E-26a.u.
   SCALEE = 1.0000    scale energy and forces
   NPACO  =    256;   APACO  = 16.0  distance and # of slots for P.C.
   PSTRESS=    0.0 pullay stress

  Mass of Ions in am
   POMASS =  24.30 32.07
  Ionic Valenz
   ZVAL   =   8.00  6.00
  Atomic Wigner-Seitz radii
   RWIGS  =  -1.00 -1.00
  virtual crystal weights 
   VCA    =   1.00  1.00
   NELECT =     448.0000    total number of electrons
   NUPDOWN=      -1.0000    fix difference up-down

 DOS related values:
   EMIN   =  10.00;   EMAX   =-10.00  energy-range for DOS
   EFERMI =   0.00
   ISMEAR =     0;   SIGMA  =   0.01  broadening in eV -4-tet -1-fermi 0-gaus

 Electronic relaxation 2 (details)
   IALGO  =     38    algorithm
   LDIAG  =      T    sub-space diagonalisation (order eigenvalues)
   LSUBROT=      F    optimize rotation matrix (better conditioning)
   TURBO    =      0    0=normal 1=particle mesh
   IRESTART =      0    0=no restart 2=restart with 2 vectors
   NREBOOT  =      0    no. of reboots
   NMIN     =      0    reboot dimension
   EREF     =   0.00    reference energy to select bands
   IMIX   =      4    mixing-type and parameters
     AMIX     =   0.40;   BMIX     =  1.00
     AMIX_MAG =   1.60;   BMIX_MAG =  1.00
     AMIN     =   0.10
     WC   =   100.;   INIMIX=   1;  MIXPRE=   1;  MAXMIX= -45

 Intra band minimization:
   WEIMIN = 0.0000     energy-eigenvalue tresh-hold
   EBREAK =  0.93E-11  absolut break condition
   DEPER  =   0.30     relativ break condition  

   TIME   =   0.40     timestep for ELM

  volume/ion in A,a.u.               =      17.21       116.14
  Fermi-wavevector in a.u.,A,eV,Ry     =   1.212964  2.292169 20.017991  1.471281
  Thomas-Fermi vector in A             =   2.348431
 
 Write flags
   LWAVE  =      F    write WAVECAR
   LCHARG =      F    write CHGCAR
   LVTOT  =      F    write LOCPOT, total local potential
   LVHAR  =      F    write LOCPOT, Hartree potential only
   LELF   =      F    write electronic localiz. function (ELF)
   LORBIT =      0    0 simple, 1 ext, 2 COOP (PROOUT)


 Dipole corrections
   LMONO  =      F    monopole corrections only (constant potential shift)
   LDIPOL =      F    correct potential (dipole corrections)
   IDIPOL =      0    1-x, 2-y, 3-z, 4-all directions 
   EPSILON=  1.0000000 bulk dielectric constant

 Exchange correlation treatment:
   GGA     =    PS    GGA type
   LEXCH   =    14    internal setting for exchange type
   VOSKOWN=      0    Vosko Wilk Nusair interpolation
   LHFCALC =     F    Hartree Fock is set to
   LHFONE  =     F    Hartree Fock one center treatment
   AEXX    =    0.0000 exact exchange contribution

 Linear response parameters
   LEPSILON=     F    determine dielectric tensor
   LRPA    =     F    only Hartree local field effects (RPA)
   LNABLA  =     F    use nabla operator in PAW spheres
   LVEL    =     F    velocity operator in full k-point grid
   LINTERFAST=   F  fast interpolation
   KINTER  =     0    interpolate to denser k-point grid
   CSHIFT  =0.1000    complex shift for real part using Kramers Kronig
   OMEGAMAX=  -1.0    maximum frequency
   DEG_THRESHOLD= 0.2000000E-02 threshold for treating states as degnerate
   RTIME   =    0.100 relaxation time in fs

 Orbital magnetization related:
   ORBITALMAG=     F  switch on orbital magnetization
   LCHIMAG   =     F  perturbation theory with respect to B field
   DQ        =  0.001000  dq finite difference perturbation B field



--------------------------------------------------------------------------------------------------------


 Static calculation
 charge density and potential will be updated during run
 non-spin polarized calculation
 Variant of blocked Davidson
 Davidson routine will perform the subspace rotation
 perform sub-space diagonalisation
    after iterative eigenvector-optimisation
 modified Broyden-mixing scheme, WC =      100.0
 initial mixing is a Kerker type mixing with AMIX =  0.4000 and BMIX =      1.0000
 Hartree-type preconditioning will be used
 using additional bands           44
 reciprocal scheme for non local part
 use partial core corrections
 calculate Harris-corrections to forces 
   (improved forces if not selfconsistent)
 use gradient corrections 
 use of overlap-Matrix (Vanderbilt PP)
 Gauss-broadening in eV      SIGMA  =   0.01


--------------------------------------------------------------------------------------------------------


  energy-cutoff  :      525.11
  volume of cell :     1101.44
      direct lattice vectors                 reciprocal lattice vectors
    10.327290060  0.000000000  0.000000000     0.096830823  0.000000000  0.000000000
     0.000000000 10.327290060  0.000000000     0.000000000  0.096830823  0.000000000
     0.000000000  0.000000000 10.327290060     0.000000000  0.000000000  0.096830823

  length of vectors
    10.327290060 10.327290060 10.327290060     0.096830823  0.096830823  0.096830823


 
 k-points in units of 2pi/SCALE and weight: Automatic mesh                          
   0.00000000  0.00000000  0.00000000       0.125
   0.04841541  0.00000000  0.00000000       0.125
   0.00000000  0.04841541  0.00000000       0.250
   0.04841541  0.04841541  0.00000000       0.250
   0.00000000  0.04841541  0.04841541       0.125
   0.04841541  0.04841541  0.04841541       0.125
 
 k-points in reciprocal lattice and weights: Automatic mesh                          
   0.00000000  0.00000000  0.00000000       0.125
   0.50000000  0.00000000  0.00000000       0.125
   0.00000000  0.50000000  0.00000000       0.250
   0.50000000  0.50000000  0.00000000       0.250
   0.00000000  0.50000000  0.50000000       0.125
   0.50000000  0.50000000  0.50000000       0.125
 
 position of ions in fractional coordinates (direct lattice) 
   0.00000000  0.00000000  0.00000000
   0.50000000  0.00000000  0.00000000
   0.00000000  0.50000000  0.00000000
   0.50000000  0.50000000  0.00000000
   0.00000000  0.00000000  0.50000000
   0.50000000  0.00000000  0.50000000
   0.00000000  0.50000000  0.50000000
   0.50000000  0.50000000  0.50000000
   0.00000000  0.25000000  0.25000000
   0.50000000  0.25000000  0.25000000
   0.00000000  0.75000000  0.25000000
   0.50000000  0.75000000  0.25000000
   0.00000000  0.25000000  0.75000000
   0.50000000  0.25000000  0.75000000
   0.00000000  0.75000000  0.75000000
   0.50000000  0.75000000  0.75000000
   0.25000000  0.00000000  0.25000000
   0.75000000  0.00000000  0.25000000
   0.25000000  0.50000000  0.25000000
   0.75000000  0.50000000  0.25000000
   0.25000000  0.00000000  0.75000000
   0.75000000  0.00000000  0.75000000
   0.25000000  0.50000000  0.75000000
   0.75000000  0.50000000  0.75000000
   0.25000000  0.25000000  0.00000000
   0.75000000  0.25000000  0.00000000
   0.25000000  0.75000000  0.00000000
   0.75000000  0.75000000  0.00000000
   0.25000000  0.25000000  0.50000000
   0.75000000  0.25000000  0.50000000
   0.25000000  0.75000000  0.50000000
   0.75000000  0.75000000  0.50000000
   0.25096831  0.00000000  0.00000000
   0.75000000  0.00000000  0.00000000
   0.25000000  0.50000000  0.00000000
   0.75000000  0.50000000  0.00000000
   0.25000000  0.00000000  0.50000000
   0.75000000  0.00000000  0.50000000
   0.25000000  0.50000000  0.50000000
   0.75000000  0.50000000  0.50000000
   0.25000000  0.25000000  0.25000000
   0.75000000  0.25000000  0.25000000
   0.25000000  0.75000000  0.25000000
   0.75000000  0.75000000  0.25000000
   0.25000000  0.25000000  0.75000000
   0.75000000  0.25000000  0.75000000
   0.25000000  0.75000000  0.75000000
   0.75000000  0.75000000  0.75000000
   0.00000000  0.00000000  0.25000000
   0.50000000  0.00000000  0.25000000
   0.00000000  0.50000000  0.25000000
   0.50000000  0.50000000  0.25000000
   0.00000000  0.00000000  0.75000000
   0.50000000  0.00000000  0.75000000
   0.00000000  0.50000000  0.75000000
   0.50000000  0.50000000  0.75000000
   0.00000000  0.25000000  0.00000000
   0.50000000  0.25000000  0.00000000
   0.00000000  0.75000000  0.00000000
   0.50000000  0.75000000  0.00000000
   0.00000000  0.25000000  0.50000000
   0.50000000  0.25000000  0.50000000
   0.00000000  0.75000000  0.50000000
   0.50000000  0.75000000  0.50000000
 
 position of ions in cartesian coordinates  (Angst):
   0.00000000  0.00000000  0.00000000
   5.16364503  0.00000000  0.00000000
   0.00000000  5.16364503  0.00000000
   5.16364503  5.16364503  0.00000000
   0.00000000  0.00000000  5.16364503
   5.16364503  0.00000000  5.16364503
   0.00000000  5.16364503  5.16364503
   5.16364503  5.16364503  5.16364503
   0.00000000  2.58182251  2.58182251
   5.16364503  2.58182251  2.58182251
   0.00000000  7.74546754  2.58182251
   5.16364503  7.74546754  2.58182251
   0.00000000  2.58182251  7.74546754
   5.16364503  2.58182251  7.74546754
   0.00000000  7.74546754  7.74546754
   5.16364503  7.74546754  7.74546754
   2.58182251  0.00000000  2.58182251
   7.74546754  0.00000000  2.58182251
   2.58182251  5.16364503  2.58182251
   7.74546754  5.16364503  2.58182251
   2.58182251  0.00000000  7.74546754
   7.74546754  0.00000000  7.74546754
   2.58182251  5.16364503  7.74546754
   7.74546754  5.16364503  7.74546754
   2.58182251  2.58182251  0.00000000
   7.74546754  2.58182251  0.00000000
   2.58182251  7.74546754  0.00000000
   7.74546754  7.74546754  0.00000000
   2.58182251  2.58182251  5.16364503
   7.74546754  2.58182251  5.16364503
   2.58182251  7.74546754  5.16364503
   7.74546754  7.74546754  5.16364503
   2.59182252  0.00000000  0.00000000
   7.74546754  0.00000000  0.00000000
   2.58182251  5.16364503  0.00000000
   7.74546754  5.16364503  0.00000000
   2.58182251  0.00000000  5.16364503
   7.74546754  0.00000000  5.16364503
   2.58182251  5.16364503  5.16364503
   7.74546754  5.16364503  5.16364503
   2.58182251  2.58182251  2.58182251
   7.74546754  2.58182251  2.58182251
   2.58182251  7.74546754  2.58182251
   7.74546754  7.74546754  2.58182251
   2.58182251  2.58182251  7.74546754
   7.74546754  2.58182251  7.74546754
   2.58182251  7.74546754  7.74546754
   7.74546754  7.74546754  7.74546754
   0.00000000  0.00000000  2.58182251
   5.16364503  0.00000000  2.58182251
   0.00000000  5.16364503  2.58182251
   5.16364503  5.16364503  2.58182251
   0.00000000  0.00000000  7.74546754
   5.16364503  0.00000000  7.74546754
   0.00000000  5.16364503  7.74546754
   5.16364503  5.16364503  7.74546754
   0.00000000  2.58182251  0.00000000
   5.16364503  2.58182251  0.00000000
   0.00000000  7.74546754  0.00000000
   5.16364503  7.74546754  0.00000000
   0.00000000  2.58182251  5.16364503
   5.16364503  2.58182251  5.16364503
   0.00000000  7.74546754  5.16364503
   5.16364503  7.74546754  5.16364503
 


--------------------------------------------------------------------------------------------------------


 k-point  1 :   0.0000 0.0000 0.0000  plane waves:   30095
 k-point  2 :   0.5000 0.0000 0.0000  plane waves:   30166
 k-point  3 :   0.0000 0.5000 0.0000  plane waves:   30166
 k-point  4 :   0.5000 0.5000 0.0000  plane waves:   30024
 k-point  5 :   0.0000 0.5000 0.5000  plane waves:   30024
 k-point  6 :   0.5000 0.5000 0.5000  plane waves:   29992

 maximum and minimum number of plane-waves per node :      6069     5990

 maximum number of plane-waves:     30166
 maximum index in each direction: 
   IXMAX=   19   IYMAX=   19   IZMAX=   19
   IXMIN=  -19   IYMIN=  -19   IZMIN=  -19

 NGX is ok and might be reduce to  78
 NGY is ok and might be reduce to  78
 NGZ is ok and might be reduce to  78

 parallel 3D FFT for wavefunctions:
    minimum data exchange during FFTs selected (reduces bandwidth)
 parallel 3D FFT for charge:
    minimum data exchange during FFTs selected (reduces bandwidth)


 total amount of memory used by VASP on root node   132340. kBytes
========================================================================

   base      :      30000. kBytes
   nonl-proj :      13731. kBytes
   fftplans  :      33042. kBytes
   grid      :      15687. kBytes
   one-center:        105. kBytes
   wavefun   :      39775. kBytes
 
     INWAV:  cpu time    0.00: real time    0.00
 Broyden mixing: mesh for mixing (old mesh)
   NGX = 39   NGY = 39   NGZ = 39
  (NGX  =160   NGY  =160   NGZ  =160)
  gives a total of  59319 points

 initial charge density was supplied:
 charge density of overlapping atoms calculated
 number of electron     448.0000000 magnetization 
 keeping initial charge density in first step


--------------------------------------------------------------------------------------------------------


 Maximum index for augmentation-charges         6003 (set IRDMAX)


--------------------------------------------------------------------------------------------------------


 First call to EWALD:  gamma=   0.172
 Maximum number of real-space cells 3x 3x 3
 Maximum number of reciprocal cells 3x 3x 3

 FEWALD executed in parallel
    FEWALD:  cpu time    0.00: real time    0.00


----------------------------------------- Iteration    1(   1)  ---------------------------------------


    POTLOK:  cpu time    0.17: real time    0.18
    SETDIJ:  cpu time    0.21: real time    0.21
     EDDAV:  cpu time   24.27: real time   24.29
       DOS:  cpu time    0.00: real time    0.00
    --------------------------------------------
      LOOP:  cpu time   24.66: real time   24.69

 eigenvalue-minimisations  :  3896
 total energy-change (2. order) : 0.4316073E+04  (-0.2667704E+05)
 number of electron     448.0000000 magnetization 
 augmentation part      448.0000000 magnetization 

 Free energy of the ion-electron system (eV)
  ---------------------------------------------------
  alpha Z        PSCENC =      1233.74239958
  Ewald energy   TEWEN  =    -25124.97201967
  -Hartree energ DENC   =     -9278.22895102
  -exchange      EXHF   =         0.00000000
  -V(xc)+E(xc)   XCENC  =      1276.34792120
  PAW double counting   =     27701.73694044   -31358.41014717
  entropy T*S    EENTRO =        -0.00173022
  eigenvalues    EBANDS =     -2707.78488042
  atomic energy  EATOM  =     42573.64344421
  ---------------------------------------------------
  free energy    TOTEN  =      4316.07297692 eV

  energy without entropy =     4316.07470715  energy(sigma->0) =     4316.07384204


--------------------------------------------------------------------------------------------------------




----------------------------------------- Iteration    1(   2)  ---------------------------------------


     EDDAV:  cpu time   24.15: real time   24.15
       DOS:  cpu time    0.00: real time    0.00
    --------------------------------------------
      LOOP:  cpu time   24.15: real time   24.15

 eigenvalue-minimisations  :  3848
 total energy-change (2. order) :-0.4215388E+04  (-0.4063997E+04)
 number of electron     448.0000000 magnetization 
 augmentation part      448.0000000 magnetization 

 Free energy of the ion-electron system (eV)
  ---------------------------------------------------
  alpha Z        PSCENC =      1233.74239958
  Ewald energy   TEWEN  =    -25124.97201967
  -Hartree energ DENC   =     -9278.22895102
  -exchange      EXHF   =         0.00000000
  -V(xc)+E(xc)   XCENC  =      1276.34792120
  PAW double counting   =     27701.73694044   -31358.41014717
  entropy T*S    EENTRO =         0.00000000
  eigenvalues    EBANDS =     -6923.17417535
  atomic energy  EATOM  =     42573.64344421
  ---------------------------------------------------
  free energy    TOTEN  =       100.68541222 eV

  energy without entropy =      100.68541222  energy(sigma->0) =      100.68541222


--------------------------------------------------------------------------------------------------------




----------------------------------------- Iteration    1(   3)  ---------------------------------------


     EDDAV:  cpu time   24.27: real time   24.26
       DOS:  cpu time    0.00: real time    0.00
    --------------------------------------------
      LOOP:  cpu time   24.27: real time   24.27

 eigenvalue-minimisations  :  3880
 total energy-change (2. order) :-0.3826863E+03  (-0.3789684E+03)
 number of electron     448.0000000 magnetization 
 augmentation part      448.0000000 magnetization 

 Free energy of the ion-electron system (eV)
  ---------------------------------------------------
  alpha Z        PSCENC =      1233.74239958
  Ewald energy   TEWEN  =    -25124.97201967
  -Hartree energ DENC   =     -9278.22895102
  -exchange      EXHF   =         0.00000000
  -V(xc)+E(xc)   XCENC  =      1276.34792120
  PAW double counting   =     27701.73694044   -31358.41014717
  entropy T*S    EENTRO =         0.00000000
  eigenvalues    EBANDS =     -7305.86050145
  atomic energy  EATOM  =     42573.64344421
  ---------------------------------------------------
  free energy    TOTEN  =      -282.00091388 eV

  energy without entropy =     -282.00091388  energy(sigma->0) =     -282.00091388


--------------------------------------------------------------------------------------------------------




----------------------------------------- Iteration    1(   4)  ---------------------------------------


     EDDAV:  cpu time   23.04: real time   23.04
       DOS:  cpu time    0.00: real time    0.00
    --------------------------------------------
      LOOP:  cpu time   23.05: real time   23.04

 eigenvalue-minimisations  :  3640
 total energy-change (2. order) :-0.1865737E+02  (-0.1858641E+02)
 number of electron     448.0000000 magnetization 
 augmentation part      448.0000000 magnetization 

 Free energy of the ion-electron system (eV)
  ---------------------------------------------------
  alpha Z        PSCENC =      1233.74239958
  Ewald energy   TEWEN  =    -25124.97201967
  -Hartree energ DENC   =     -9278.22895102
  -exchange      EXHF   =         0.00000000
  -V(xc)+E(xc)   XCENC  =      1276.34792120
  PAW double counting   =     27701.73694044   -31358.41014717
  entropy T*S    EENTRO =         0.00000000
  eigenvalues    EBANDS =     -7324.51787246
  atomic energy  EATOM  =     42573.64344421
  ---------------------------------------------------
  free energy    TOTEN  =      -300.65828489 eV

  energy without entropy =     -300.65828489  energy(sigma->0) =     -300.65828489


--------------------------------------------------------------------------------------------------------




----------------------------------------- Iteration    1(   5)  ---------------------------------------


     EDDAV:  cpu time   24.93: real time   24.93
       DOS:  cpu time    0.00: real time    0.00
    CHARGE:  cpu time    1.00: real time    1.00
    MIXING:  cpu time    0.01: real time    0.01
    --------------------------------------------
      LOOP:  cpu time   25.94: real time   25.93

 eigenvalue-minimisations  :  4024
 total energy-change (2. order) :-0.8709286E+00  (-0.8701780E+00)
 number of electron     447.9999987 magnetization 
 augmentation part      105.4641569 magnetization 

 Broyden mixing:
  rms(total) = 0.25002E+01    rms(broyden)= 0.25000E+01
  rms(prec ) = 0.29656E+01
  weight for this iteration     100.00

 Free energy of the ion-electron system (eV)
  ---------------------------------------------------
  alpha Z        PSCENC =      1233.74239958
  Ewald energy   TEWEN  =    -25124.97201967
  -Hartree energ DENC   =     -9278.22895102
  -exchange      EXHF   =         0.00000000
  -V(xc)+E(xc)   XCENC  =      1276.34792120
  PAW double counting   =     27701.73694044   -31358.41014717
  entropy T*S    EENTRO =         0.00000000
  eigenvalues    EBANDS =     -7325.38880110
  atomic energy  EATOM  =     42573.64344421
  ---------------------------------------------------
  free energy    TOTEN  =      -301.52921353 eV

  energy without entropy =     -301.52921353  energy(sigma->0) =     -301.52921353


--------------------------------------------------------------------------------------------------------




----------------------------------------- Iteration    1(   6)  ---------------------------------------


    POTLOK:  cpu time    0.17: real time    0.17
    SETDIJ:  cpu time    0.21: real time    0.21
     EDDAV:  cpu time   22.84: real time   22.83
       DOS:  cpu time    0.00: real time    0.00
    CHARGE:  cpu time    1.00: real time    1.00
    MIXING:  cpu time    0.01: real time    0.01
    --------------------------------------------
      LOOP:  cpu time   24.23: real time   24.23

 eigenvalue-minimisations  :  3592
 total energy-change (2. order) : 0.1039471E+02  (-0.2085482E+01)
 number of electron     447.9999987 magnetization 
 augmentation part      106.7014575 magnetization 

 Broyden mixing:
  rms(total) = 0.18054E+01    rms(broyden)= 0.18054E+01
  rms(prec ) = 0.19182E+01
  weight for this iteration     100.00

 eigenvalues of (default mixing * dielectric matrix)
  average eigenvalue GAMMA=   2.1492
  2.1492

 Free energy of the ion-electron system (eV)
  ---------------------------------------------------
  alpha Z        PSCENC =      1233.74239958
  Ewald energy   TEWEN  =    -25124.97201967
  -Hartree energ DENC   =     -9265.73591091
  -exchange      EXHF   =         0.00000000
  -V(xc)+E(xc)   XCENC  =      1285.03318622
  PAW double counting   =     30019.74686368   -33648.18623920
  entropy T*S    EENTRO =         0.00000000
  eigenvalues    EBANDS =     -7364.40622861
  atomic energy  EATOM  =     42573.64344421
  ---------------------------------------------------
  free energy    TOTEN  =      -291.13450470 eV

  energy without entropy =     -291.13450470  energy(sigma->0) =     -291.13450470


--------------------------------------------------------------------------------------------------------




----------------------------------------- Iteration    1(   7)  ---------------------------------------


    POTLOK:  cpu time    0.17: real time    0.17
    SETDIJ:  cpu time    0.21: real time    0.22
     EDDAV:  cpu time   23.61: real time   23.62
       DOS:  cpu time    0.00: real time    0.00
    CHARGE:  cpu time    0.99: real time    0.99
    MIXING:  cpu time    0.01: real time    0.01
    --------------------------------------------
      LOOP:  cpu time   25.00: real time   25.01

 eigenvalue-minimisations  :  3752
 total energy-change (2. order) : 0.1261890E+01  (-0.8121378E+00)
 number of electron     447.9999987 magnetization 
 augmentation part      107.4707576 magnetization 

 Broyden mixing:
  rms(total) = 0.89426E+00    rms(broyden)= 0.89426E+00
  rms(prec ) = 0.91532E+00
  weight for this iteration     100.00

 eigenvalues of (default mixing * dielectric matrix)
  average eigenvalue GAMMA=   2.2069
  1.4625  2.9514

 Free energy of the ion-electron system (eV)
  ---------------------------------------------------
  alpha Z        PSCENC =      1233.74239958
  Ewald energy   TEWEN  =    -25124.97201967
  -Hartree energ DENC   =     -9237.87986464
  -exchange      EXHF   =         0.00000000
  -V(xc)+E(xc)   XCENC  =      1291.89931021
  PAW double counting   =     34623.67540969   -38240.57399021
  entropy T*S    EENTRO =         0.00000000
  eigenvalues    EBANDS =     -7409.40730424
  atomic energy  EATOM  =     42573.64344421
  ---------------------------------------------------
  free energy    TOTEN  =      -289.87261506 eV

  energy without entropy =     -289.87261506  energy(sigma->0) =     -289.87261506


--------------------------------------------------------------------------------------------------------




----------------------------------------- Iteration    1(   8)  ---------------------------------------


    POTLOK:  cpu time    0.17: real time    0.17
    SETDIJ:  cpu time    0.21: real time    0.21
     EDDAV:  cpu time   22.51: real time   22.51
       DOS:  cpu time    0.00: real time    0.00
    CHARGE:  cpu time    1.00: real time    1.00
    MIXING:  cpu time    0.01: real time    0.01
    --------------------------------------------
      LOOP:  cpu time   23.91: real time   23.91

 eigenvalue-minimisations  :  3528
 total energy-change (2. order) : 0.7988622E-01  (-0.7450758E-01)
 number of electron     447.9999987 magnetization 
 augmentation part      107.2585517 magnetization 

 Broyden mixing:
  rms(total) = 0.23579E+00    rms(broyden)= 0.23579E+00
  rms(prec ) = 0.23831E+00
  weight for this iteration     100.00

 eigenvalues of (default mixing * dielectric matrix)
  average eigenvalue GAMMA=   1.6122
  2.4880  0.9363  1.4122

 Free energy of the ion-electron system (eV)
  ---------------------------------------------------
  alpha Z        PSCENC =      1233.74239958
  Ewald energy   TEWEN  =    -25124.97201967
  -Hartree energ DENC   =     -9205.92390380
  -exchange      EXHF   =         0.00000000
  -V(xc)+E(xc)   XCENC  =      1292.65956623
  PAW double counting   =     38703.82499432   -42329.91406665
  entropy T*S    EENTRO =         0.00000000
  eigenvalues    EBANDS =     -7432.85314306
  atomic energy  EATOM  =     42573.64344421
  ---------------------------------------------------
  free energy    TOTEN  =      -289.79272885 eV

  energy without entropy =     -289.79272885  energy(sigma->0) =     -289.79272885


--------------------------------------------------------------------------------------------------------




----------------------------------------- Iteration    1(   9)  ---------------------------------------


    POTLOK:  cpu time    0.17: real time    0.17
    SETDIJ:  cpu time    0.21: real time    0.21
     EDDAV:  cpu time   23.15: real time   23.14
       DOS:  cpu time    0.00: real time    0.00
    CHARGE:  cpu time    1.01: real time    1.01
    MIXING:  cpu time    0.01: real time    0.01
    --------------------------------------------
      LOOP:  cpu time   24.56: real time   24.55

 eigenvalue-minimisations  :  3656
 total energy-change (2. order) : 0.4692582E-02  (-0.2628295E-02)
 number of electron     447.9999987 magnetization 
 augmentation part      107.2857066 magnetization 

 Broyden mixing:
  rms(total) = 0.46695E-01    rms(broyden)= 0.46695E-01
  rms(prec ) = 0.48147E-01
  weight for this iteration     100.00

 eigenvalues of (default mixing * dielectric matrix)
  average eigenvalue GAMMA=   1.8656
  2.4961  2.4961  1.0398  1.4305

 Free energy of the ion-electron system (eV)
  ---------------------------------------------------
  alpha Z        PSCENC =      1233.74239958
  Ewald energy   TEWEN  =    -25124.97201967
  -Hartree energ DENC   =     -9209.88925109
  -exchange      EXHF   =         0.00000000
  -V(xc)+E(xc)   XCENC  =      1292.50998356
  PAW double counting   =     37873.12781434   -41497.55770971
  entropy T*S    EENTRO =         0.00000000
  eigenvalues    EBANDS =     -7430.39269749
  atomic energy  EATOM  =     42573.64344421
  ---------------------------------------------------
  free energy    TOTEN  =      -289.78803627 eV

  energy without entropy =     -289.78803627  energy(sigma->0) =     -289.78803627


--------------------------------------------------------------------------------------------------------




----------------------------------------- Iteration    1(  10)  ---------------------------------------


    POTLOK:  cpu time    0.17: real time    0.17
    SETDIJ:  cpu time    0.21: real time    0.21
     EDDAV:  cpu time   23.61: real time   23.62
       DOS:  cpu time    0.00: real time    0.00
    CHARGE:  cpu time    1.00: real time    1.00
    MIXING:  cpu time    0.01: real time    0.01
    --------------------------------------------
      LOOP:  cpu time   25.00: real time   25.02

 eigenvalue-minimisations  :  3760
 total energy-change (2. order) :-0.4383648E-03  (-0.5697570E-03)
 number of electron     447.9999987 magnetization 
 augmentation part      107.3058326 magnetization 

 Broyden mixing:
  rms(total) = 0.21787E-01    rms(broyden)= 0.21787E-01
  rms(prec ) = 0.22934E-01
  weight for this iteration     100.00

 eigenvalues of (default mixing * dielectric matrix)
  average eigenvalue GAMMA=   1.6959
  2.6911  2.4581  1.2487  1.2001  0.8814

 Free energy of the ion-electron system (eV)
  ---------------------------------------------------
  alpha Z        PSCENC =      1233.74239958
  Ewald energy   TEWEN  =    -25124.97201967
  -Hartree energ DENC   =     -9207.77681639
  -exchange      EXHF   =         0.00000000
  -V(xc)+E(xc)   XCENC  =      1292.52503725
  PAW double counting   =     37587.20221268   -41211.63682621
  entropy T*S    EENTRO =         0.00000000
  eigenvalues    EBANDS =     -7432.51590608
  atomic energy  EATOM  =     42573.64344421
  ---------------------------------------------------
  free energy    TOTEN  =      -289.78847463 eV

  energy without entropy =     -289.78847463  energy(sigma->0) =     -289.78847463


--------------------------------------------------------------------------------------------------------




----------------------------------------- Iteration    1(  11)  ---------------------------------------


    POTLOK:  cpu time    0.17: real time    0.17
    SETDIJ:  cpu time    0.21: real time    0.22
     EDDAV:  cpu time   22.46: real time   22.46
       DOS:  cpu time    0.00: real time    0.00
    CHARGE:  cpu time    1.01: real time    1.01
    MIXING:  cpu time    0.01: real time    0.01
    --------------------------------------------
      LOOP:  cpu time   23.86: real time   23.87

 eigenvalue-minimisations  :  3520
 total energy-change (2. order) : 0.2373870E-03  (-0.9452741E-04)
 number of electron     447.9999987 magnetization 
 augmentation part      107.2972711 magnetization 

 Broyden mixing:
  rms(total) = 0.22273E-02    rms(broyden)= 0.22271E-02
  rms(prec ) = 0.22959E-02
  weight for this iteration     100.00

 eigenvalues of (default mixing * dielectric matrix)
  average eigenvalue GAMMA=   1.5166
  2.6698  2.4474  1.2345  1.2345  0.7566  0.7566

 Free energy of the ion-electron system (eV)
  ---------------------------------------------------
  alpha Z        PSCENC =      1233.74239958
  Ewald energy   TEWEN  =    -25124.97201967
  -Hartree energ DENC   =     -9207.03459511
  -exchange      EXHF   =         0.00000000
  -V(xc)+E(xc)   XCENC  =      1292.51288989
  PAW double counting   =     37654.17977357   -41278.95358849
  entropy T*S    EENTRO =         0.00000000
  eigenvalues    EBANDS =     -7432.90654122
  atomic energy  EATOM  =     42573.64344421
  ---------------------------------------------------
  free energy    TOTEN  =      -289.78823724 eV

  energy without entropy =     -289.78823724  energy(sigma->0) =     -289.78823724


--------------------------------------------------------------------------------------------------------




----------------------------------------- Iteration    1(  12)  ---------------------------------------


    POTLOK:  cpu time    0.17: real time    0.17
    SETDIJ:  cpu time    0.22: real time    0.22
     EDDAV:  cpu time   23.55: real time   23.54
       DOS:  cpu time    0.00: real time    0.00
    CHARGE:  cpu time    0.99: real time    0.99
    MIXING:  cpu time    0.01: real time    0.01
    --------------------------------------------
      LOOP:  cpu time   24.94: real time   24.94

 eigenvalue-minimisations  :  3736
 total energy-change (2. order) :-0.2577151E-05  (-0.2788260E-05)
 number of electron     447.9999987 magnetization 
 augmentation part      107.2964799 magnetization 

 Broyden mixing:
  rms(total) = 0.25254E-02    rms(broyden)= 0.25254E-02
  rms(prec ) = 0.25492E-02
  weight for this iteration     100.00

 eigenvalues of (default mixing * dielectric matrix)
  average eigenvalue GAMMA=   1.7634
  2.8217  2.8217  2.2894  1.3898  0.9248  1.0481  1.0481

 Free energy of the ion-electron system (eV)
  ---------------------------------------------------
  alpha Z        PSCENC =      1233.74239958
  Ewald energy   TEWEN  =    -25124.97201967
  -Hartree energ DENC   =     -9207.05920559
  -exchange      EXHF   =         0.00000000
  -V(xc)+E(xc)   XCENC  =      1292.51343565
  PAW double counting   =     37656.91480871   -41281.70230096
  entropy T*S    EENTRO =         0.00000000
  eigenvalues    EBANDS =     -7432.86880175
  atomic energy  EATOM  =     42573.64344421
  ---------------------------------------------------
  free energy    TOTEN  =      -289.78823982 eV

  energy without entropy =     -289.78823982  energy(sigma->0) =     -289.78823982


--------------------------------------------------------------------------------------------------------




----------------------------------------- Iteration    1(  13)  ---------------------------------------


    POTLOK:  cpu time    0.17: real time    0.17
    SETDIJ:  cpu time    0.21: real time    0.21
     EDDAV:  cpu time   22.60: real time   22.61
       DOS:  cpu time    0.00: real time    0.00
    CHARGE:  cpu time    0.99: real time    0.99
    MIXING:  cpu time    0.01: real time    0.01
    --------------------------------------------
      LOOP:  cpu time   23.99: real time   24.00

 eigenvalue-minimisations  :  3552
 total energy-change (2. order) :-0.2982342E-05  (-0.6066166E-06)
 number of electron     447.9999987 magnetization 
 augmentation part      107.2957714 magnetization 

 Broyden mixing:
  rms(total) = 0.49330E-03    rms(broyden)= 0.49329E-03
  rms(prec ) = 0.57104E-03
  weight for this iteration     100.00

 eigenvalues of (default mixing * dielectric matrix)
  average eigenvalue GAMMA=   1.6280
  2.7172  2.3705  2.3705  1.2898  1.2898  1.0066  0.9897  0.9897

 Free energy of the ion-electron system (eV)
  ---------------------------------------------------
  alpha Z        PSCENC =      1233.74239958
  Ewald energy   TEWEN  =    -25124.97201967
  -Hartree energ DENC   =     -9207.06812921
  -exchange      EXHF   =         0.00000000
  -V(xc)+E(xc)   XCENC  =      1292.50989677
  PAW double counting   =     37648.13425828   -41272.97412462
  entropy T*S    EENTRO =         0.00000000
  eigenvalues    EBANDS =     -7432.80396814
  atomic energy  EATOM  =     42573.64344421
  ---------------------------------------------------
  free energy    TOTEN  =      -289.78824280 eV

  energy without entropy =     -289.78824280  energy(sigma->0) =     -289.78824280


--------------------------------------------------------------------------------------------------------




----------------------------------------- Iteration    1(  14)  ---------------------------------------


    POTLOK:  cpu time    0.17: real time    0.17
    SETDIJ:  cpu time    0.21: real time    0.21
     EDDAV:  cpu time   22.79: real time   22.80
       DOS:  cpu time    0.00: real time    0.00
    CHARGE:  cpu time    0.99: real time    0.99
    MIXING:  cpu time    0.01: real time    0.01
    --------------------------------------------
      LOOP:  cpu time   24.18: real time   24.19

 eigenvalue-minimisations  :  3568
 total energy-change (2. order) : 0.2407469E-06  (-0.2479394E-06)
 number of electron     447.9999987 magnetization 
 augmentation part      107.2961880 magnetization 

 Broyden mixing:
  rms(total) = 0.22447E-03    rms(broyden)= 0.22447E-03
  rms(prec ) = 0.24069E-03
  weight for this iteration     100.00

 eigenvalues of (default mixing * dielectric matrix)
  average eigenvalue GAMMA=   1.4863
  2.7096  2.4006  2.4006  1.2741  1.2741  1.0107  1.0108  1.0108  0.2860

 Free energy of the ion-electron system (eV)
  ---------------------------------------------------
  alpha Z        PSCENC =      1233.74239958
  Ewald energy   TEWEN  =    -25124.97201967
  -Hartree energ DENC   =     -9207.06585637
  -exchange      EXHF   =         0.00000000
  -V(xc)+E(xc)   XCENC  =      1292.51333568
  PAW double counting   =     37650.80863149   -41275.63215646
  entropy T*S    EENTRO =         0.00000000
  eigenvalues    EBANDS =     -7432.82602102
  atomic energy  EATOM  =     42573.64344421
  ---------------------------------------------------
  free energy    TOTEN  =      -289.78824256 eV

  energy without entropy =     -289.78824256  energy(sigma->0) =     -289.78824256


--------------------------------------------------------------------------------------------------------




----------------------------------------- Iteration    1(  15)  ---------------------------------------


    POTLOK:  cpu time    0.17: real time    0.17
    SETDIJ:  cpu time    0.21: real time    0.21
     EDDAV:  cpu time   20.43: real time   20.44
       DOS:  cpu time    0.00: real time    0.00
    CHARGE:  cpu time    0.99: real time    0.99
    MIXING:  cpu time    0.01: real time    0.01
    --------------------------------------------
      LOOP:  cpu time   21.82: real time   21.83

 eigenvalue-minimisations  :  3088
 total energy-change (2. order) : 0.2768211E-06  (-0.8576197E-08)
 number of electron     447.9999987 magnetization 
 augmentation part      107.2962036 magnetization 

 Broyden mixing:
  rms(total) = 0.25569E-03    rms(broyden)= 0.25569E-03
  rms(prec ) = 0.26308E-03
  weight for this iteration     100.00

 eigenvalues of (default mixing * dielectric matrix)
  average eigenvalue GAMMA=   1.6783
  3.4152  2.7419  2.4117  1.5224  1.5224  1.3395  1.0255  1.0255  0.9335  0.8458

 Free energy of the ion-electron system (eV)
  ---------------------------------------------------
  alpha Z        PSCENC =      1233.74239958
  Ewald energy   TEWEN  =    -25124.97201967
  -Hartree energ DENC   =     -9207.06608054
  -exchange      EXHF   =         0.00000000
  -V(xc)+E(xc)   XCENC  =      1292.51334292
  PAW double counting   =     37651.73799823   -41276.55929161
  entropy T*S    EENTRO =         0.00000000
  eigenvalues    EBANDS =     -7432.82803541
  atomic energy  EATOM  =     42573.64344421
  ---------------------------------------------------
  free energy    TOTEN  =      -289.78824228 eV

  energy without entropy =     -289.78824228  energy(sigma->0) =     -289.78824228


--------------------------------------------------------------------------------------------------------




----------------------------------------- Iteration    1(  16)  ---------------------------------------


    POTLOK:  cpu time    0.17: real time    0.17
    SETDIJ:  cpu time    0.21: real time    0.21
     EDDAV:  cpu time   19.95: real time   19.96
       DOS:  cpu time    0.00: real time    0.00
    CHARGE:  cpu time    1.00: real time    1.00
    MIXING:  cpu time    0.01: real time    0.01
    --------------------------------------------
      LOOP:  cpu time   21.35: real time   21.36

 eigenvalue-minimisations  :  2984
 total energy-change (2. order) :-0.7137714E-08  (-0.1313252E-07)
 number of electron     447.9999987 magnetization 
 augmentation part      107.2960973 magnetization 

 Broyden mixing:
  rms(total) = 0.11597E-03    rms(broyden)= 0.11597E-03
  rms(prec ) = 0.12222E-03
  weight for this iteration     100.00

 eigenvalues of (default mixing * dielectric matrix)
  average eigenvalue GAMMA=   1.5912
  2.8190  2.5329  2.5329  1.5124  1.5124  1.1786  1.1786  1.2198  1.2198  0.9869
  0.8104

 Free energy of the ion-electron system (eV)
  ---------------------------------------------------
  alpha Z        PSCENC =      1233.74239958
  Ewald energy   TEWEN  =    -25124.97201967
  -Hartree energ DENC   =     -9207.06646184
  -exchange      EXHF   =         0.00000000
  -V(xc)+E(xc)   XCENC  =      1292.51269045
  PAW double counting   =     37651.00121864   -41275.82677787
  entropy T*S    EENTRO =         0.00000000
  eigenvalues    EBANDS =     -7432.82273580
  atomic energy  EATOM  =     42573.64344421
  ---------------------------------------------------
  free energy    TOTEN  =      -289.78824229 eV

  energy without entropy =     -289.78824229  energy(sigma->0) =     -289.78824229


--------------------------------------------------------------------------------------------------------




----------------------------------------- Iteration    1(  17)  ---------------------------------------


    POTLOK:  cpu time    0.17: real time    0.17
    SETDIJ:  cpu time    0.21: real time    0.21
     EDDAV:  cpu time   17.91: real time   17.92
       DOS:  cpu time    0.00: real time    0.00
    CHARGE:  cpu time    0.99: real time    0.99
    MIXING:  cpu time    0.01: real time    0.01
    --------------------------------------------
      LOOP:  cpu time   19.31: real time   19.31

 eigenvalue-minimisations  :  2584
 total energy-change (2. order) : 0.1413355E-06  (-0.2504574E-08)
 number of electron     447.9999987 magnetization 
 augmentation part      107.2961406 magnetization 

 Broyden mixing:
  rms(total) = 0.16043E-03    rms(broyden)= 0.16043E-03
  rms(prec ) = 0.16123E-03
  weight for this iteration     100.00

 eigenvalues of (default mixing * dielectric matrix)
  average eigenvalue GAMMA=   1.5224
  2.8855  2.6067  2.4850  1.5274  1.5274  1.1416  1.1416  1.2488  1.1583  0.9938
  0.7764  0.7764

 Free energy of the ion-electron system (eV)
  ---------------------------------------------------
  alpha Z        PSCENC =      1233.74239958
  Ewald energy   TEWEN  =    -25124.97201967
  -Hartree energ DENC   =     -9207.06552446
  -exchange      EXHF   =         0.00000000
  -V(xc)+E(xc)   XCENC  =      1292.51296548
  PAW double counting   =     37651.52963302   -41276.35075208
  entropy T*S    EENTRO =         0.00000000
  eigenvalues    EBANDS =     -7432.82838824
  atomic energy  EATOM  =     42573.64344421
  ---------------------------------------------------
  free energy    TOTEN  =      -289.78824215 eV

  energy without entropy =     -289.78824215  energy(sigma->0) =     -289.78824215


--------------------------------------------------------------------------------------------------------




----------------------------------------- Iteration    1(  18)  ---------------------------------------


    POTLOK:  cpu time    0.17: real time    0.17
    SETDIJ:  cpu time    0.21: real time    0.22
     EDDAV:  cpu time   15.06: real time   15.07
       DOS:  cpu time    0.00: real time    0.00
    CHARGE:  cpu time    1.01: real time    1.01
    MIXING:  cpu time    0.01: real time    0.01
    --------------------------------------------
      LOOP:  cpu time   16.47: real time   16.48

 eigenvalue-minimisations  :  1984
 total energy-change (2. order) :-0.4745380E-07  (-0.7579461E-09)
 number of electron     447.9999987 magnetization 
 augmentation part      107.2961438 magnetization 

 Broyden mixing:
  rms(total) = 0.11197E-03    rms(broyden)= 0.11197E-03
  rms(prec ) = 0.11244E-03
  weight for this iteration     100.00

 eigenvalues of (default mixing * dielectric matrix)
  average eigenvalue GAMMA=   1.4292
  2.8957  2.6234  2.4657  1.4724  1.4724  1.1401  1.1401  1.2347  1.1793  0.9954
  0.6932  0.6932  0.5736

 Free energy of the ion-electron system (eV)
  ---------------------------------------------------
  alpha Z        PSCENC =      1233.74239958
  Ewald energy   TEWEN  =    -25124.97201967
  -Hartree energ DENC   =     -9207.06654210
  -exchange      EXHF   =         0.00000000
  -V(xc)+E(xc)   XCENC  =      1292.51296897
  PAW double counting   =     37651.31598559   -41276.13734856
  entropy T*S    EENTRO =         0.00000000
  eigenvalues    EBANDS =     -7432.82713021
  atomic energy  EATOM  =     42573.64344421
  ---------------------------------------------------
  free energy    TOTEN  =      -289.78824220 eV

  energy without entropy =     -289.78824220  energy(sigma->0) =     -289.78824220


--------------------------------------------------------------------------------------------------------




----------------------------------------- Iteration    1(  19)  ---------------------------------------


    POTLOK:  cpu time    0.17: real time    0.17
    SETDIJ:  cpu time    0.21: real time    0.22
     EDDAV:  cpu time   15.07: real time   15.08
       DOS:  cpu time    0.00: real time    0.00
    CHARGE:  cpu time    1.01: real time    1.02
    MIXING:  cpu time    0.01: real time    0.01
    --------------------------------------------
      LOOP:  cpu time   16.48: real time   16.49

 eigenvalue-minimisations  :  1968
 total energy-change (2. order) :-0.6854680E-07  (-0.1981746E-09)
 number of electron     447.9999987 magnetization 
 augmentation part      107.2961474 magnetization 

 Broyden mixing:
  rms(total) = 0.40362E-04    rms(broyden)= 0.40362E-04
  rms(prec ) = 0.40585E-04
  weight for this iteration     100.00

 eigenvalues of (default mixing * dielectric matrix)
  average eigenvalue GAMMA=   1.6081
  2.6770  2.5570  2.5570  2.1045  2.1045  2.1817  1.3489  1.0247  1.0247  1.0893
  1.0893  0.9875  0.8837  0.8837

 Free energy of the ion-electron system (eV)
  ---------------------------------------------------
  alpha Z        PSCENC =      1233.74239958
  Ewald energy   TEWEN  =    -25124.97201967
  -Hartree energ DENC   =     -9207.06718308
  -exchange      EXHF   =         0.00000000
  -V(xc)+E(xc)   XCENC  =      1292.51293777
  PAW double counting   =     37651.00807216   -41275.82972499
  entropy T*S    EENTRO =         0.00000000
  eigenvalues    EBANDS =     -7432.82616825
  atomic energy  EATOM  =     42573.64344421
  ---------------------------------------------------
  free energy    TOTEN  =      -289.78824227 eV

  energy without entropy =     -289.78824227  energy(sigma->0) =     -289.78824227


--------------------------------------------------------------------------------------------------------




----------------------------------------- Iteration    1(  20)  ---------------------------------------


    POTLOK:  cpu time    0.17: real time    0.17
    SETDIJ:  cpu time    0.21: real time    0.21
     EDDAV:  cpu time   14.84: real time   14.85
       DOS:  cpu time    0.00: real time    0.00
    CHARGE:  cpu time    1.00: real time    1.00
    MIXING:  cpu time    0.01: real time    0.01
    --------------------------------------------
      LOOP:  cpu time   16.23: real time   16.25

 eigenvalue-minimisations  :  1936
 total energy-change (2. order) :-0.6526534E-07  (-0.2681215E-09)
 number of electron     447.9999987 magnetization 
 augmentation part      107.2961551 magnetization 

 Broyden mixing:
  rms(total) = 0.47201E-04    rms(broyden)= 0.47200E-04
  rms(prec ) = 0.47693E-04
  weight for this iteration     100.00

 eigenvalues of (default mixing * dielectric matrix)
  average eigenvalue GAMMA=   1.5620
  3.0251  2.6814  2.5669  2.3558  1.6972  1.6972  1.1512  1.1512  1.1853  1.1853
  1.0425  1.0425  0.9721  0.8385  0.8385

 Free energy of the ion-electron system (eV)
  ---------------------------------------------------
  alpha Z        PSCENC =      1233.74239958
  Ewald energy   TEWEN  =    -25124.97201967
  -Hartree energ DENC   =     -9207.06869784
  -exchange      EXHF   =         0.00000000
  -V(xc)+E(xc)   XCENC  =      1292.51292010
  PAW double counting   =     37650.63910759   -41275.46077141
  entropy T*S    EENTRO =         0.00000000
  eigenvalues    EBANDS =     -7432.82462490
  atomic energy  EATOM  =     42573.64344421
  ---------------------------------------------------
  free energy    TOTEN  =      -289.78824233 eV

  energy without entropy =     -289.78824233  energy(sigma->0) =     -289.78824233


--------------------------------------------------------------------------------------------------------




----------------------------------------- Iteration    1(  21)  ---------------------------------------


    POTLOK:  cpu time    0.17: real time    0.17
    SETDIJ:  cpu time    0.21: real time    0.21
     EDDAV:  cpu time   14.88: real time   14.89
       DOS:  cpu time    0.00: real time    0.00
    CHARGE:  cpu time    0.99: real time    1.00
    MIXING:  cpu time    0.01: real time    0.01
    --------------------------------------------
      LOOP:  cpu time   16.28: real time   16.29

 eigenvalue-minimisations  :  1944
 total energy-change (2. order) : 0.5136098E-07  (-0.7111361E-10)
 number of electron     447.9999987 magnetization 
 augmentation part      107.2961538 magnetization 

 Broyden mixing:
  rms(total) = 0.10995E-04    rms(broyden)= 0.10994E-04
  rms(prec ) = 0.11294E-04
  weight for this iteration     100.00

 eigenvalues of (default mixing * dielectric matrix)
  average eigenvalue GAMMA=   1.5051
  3.0234  2.6876  2.5517  2.3546  1.7047  1.7047  1.2278  1.2278  1.1956  1.1956
  1.0529  1.0529  0.9791  0.8043  0.8043  0.5143

 Free energy of the ion-electron system (eV)
  ---------------------------------------------------
  alpha Z        PSCENC =      1233.74239958
  Ewald energy   TEWEN  =    -25124.97201967
  -Hartree energ DENC   =     -9207.06837236
  -exchange      EXHF   =         0.00000000
  -V(xc)+E(xc)   XCENC  =      1292.51292516
  PAW double counting   =     37650.80429940   -41275.62575703
  entropy T*S    EENTRO =         0.00000000
  eigenvalues    EBANDS =     -7432.82516157
  atomic energy  EATOM  =     42573.64344421
  ---------------------------------------------------
  free energy    TOTEN  =      -289.78824228 eV

  energy without entropy =     -289.78824228  energy(sigma->0) =     -289.78824228


--------------------------------------------------------------------------------------------------------




----------------------------------------- Iteration    1(  22)  ---------------------------------------


    POTLOK:  cpu time    0.17: real time    0.17
    SETDIJ:  cpu time    0.21: real time    0.21
     EDDAV:  cpu time   14.80: real time   14.81
       DOS:  cpu time    0.00: real time    0.00
    CHARGE:  cpu time    0.99: real time    0.99
    MIXING:  cpu time    0.01: real time    0.01
    --------------------------------------------
      LOOP:  cpu time   16.19: real time   16.20

 eigenvalue-minimisations  :  1928
 total energy-change (2. order) : 0.1567969E-07  (-0.4649960E-10)
 number of electron     447.9999987 magnetization 
 augmentation part      107.2961508 magnetization 

 Broyden mixing:
  rms(total) = 0.46528E-05    rms(broyden)= 0.46516E-05
  rms(prec ) = 0.47322E-05
  weight for this iteration     100.00

 eigenvalues of (default mixing * dielectric matrix)
  average eigenvalue GAMMA=   1.4999
  3.0633  2.7253  2.5190  2.2449  1.6693  1.6693  0.9994  0.9994  1.2072  1.2072
  1.2196  1.2196  1.0246  1.0246  1.0122  0.8470  0.8470

 Free energy of the ion-electron system (eV)
  ---------------------------------------------------
  alpha Z        PSCENC =      1233.74239958
  Ewald energy   TEWEN  =    -25124.97201967
  -Hartree energ DENC   =     -9207.06825124
  -exchange      EXHF   =         0.00000000
  -V(xc)+E(xc)   XCENC  =      1292.51292080
  PAW double counting   =     37650.86016379   -41275.68159479
  entropy T*S    EENTRO =         0.00000000
  eigenvalues    EBANDS =     -7432.82530494
  atomic energy  EATOM  =     42573.64344421
  ---------------------------------------------------
  free energy    TOTEN  =      -289.78824226 eV

  energy without entropy =     -289.78824226  energy(sigma->0) =     -289.78824226


--------------------------------------------------------------------------------------------------------




----------------------------------------- Iteration    1(  23)  ---------------------------------------


    POTLOK:  cpu time    0.17: real time    0.17
    SETDIJ:  cpu time    0.21: real time    0.21
     EDDAV:  cpu time   14.90: real time   14.90
       DOS:  cpu time    0.00: real time    0.00
    --------------------------------------------
      LOOP:  cpu time   15.30: real time   15.29

 eigenvalue-minimisations  :  1944
 total energy-change (2. order) :-0.7144990E-08  (-0.1806755E-10)
 number of electron     447.9999987 magnetization 
 augmentation part      107.2961508 magnetization 

 Free energy of the ion-electron system (eV)
  ---------------------------------------------------
  alpha Z        PSCENC =      1233.74239958
  Ewald energy   TEWEN  =    -25124.97201967
  -Hartree energ DENC   =     -9207.06834694
  -exchange      EXHF   =         0.00000000
  -V(xc)+E(xc)   XCENC  =      1292.51292107
  PAW double counting   =     37650.83780269   -41275.65925497
  entropy T*S    EENTRO =         0.00000000
  eigenvalues    EBANDS =     -7432.82518824
  atomic energy  EATOM  =     42573.64344421
  ---------------------------------------------------
  free energy    TOTEN  =      -289.78824227 eV

  energy without entropy =     -289.78824227  energy(sigma->0) =     -289.78824227


--------------------------------------------------------------------------------------------------------




 average (electrostatic) potential at core
  the test charge radii are     0.8294  0.9698
  (the norm of the test charge is              1.0000)
       1 -42.4905       2 -42.4704       3 -42.4820       4 -42.4789       5 -42.4820
       6 -42.4789       7 -42.4809       8 -42.4800       9 -42.4815      10 -42.4795
      11 -42.4815      12 -42.4795      13 -42.4815      14 -42.4795      15 -42.4815
      16 -42.4795      17 -42.4805      18 -42.4805      19 -42.4805      20 -42.4805
      21 -42.4805      22 -42.4805      23 -42.4805      24 -42.4805      25 -42.4805
      26 -42.4805      27 -42.4805      28 -42.4805      29 -42.4805      30 -42.4805
      31 -42.4805      32 -42.4805      33 -86.2254      34 -86.2255      35 -86.2255
      36 -86.2255      37 -86.2255      38 -86.2255      39 -86.2255      40 -86.2255
      41 -86.2255      42 -86.2255      43 -86.2255      44 -86.2255      45 -86.2255
      46 -86.2255      47 -86.2255      48 -86.2255      49 -86.2286      50 -86.2223
      51 -86.2260      52 -86.2249      53 -86.2286      54 -86.2223      55 -86.2260
      56 -86.2249      57 -86.2286      58 -86.2223      59 -86.2286      60 -86.2223
      61 -86.2260      62 -86.2249      63 -86.2260      64 -86.2249
 
 
 
 E-fermi :   3.8140     XC(G=0): -10.1136     alpha+bet :-10.7091


 k-point     1 :       0.0000    0.0000    0.0000
  band No.  band energies     occupation 
      1     -37.5397      2.00000
      2     -37.5393      2.00000
      3     -37.5393      2.00000
      4     -37.5339      2.00000
      5     -37.5338      2.00000
      6     -37.5338      2.00000
      7     -37.5336      2.00000
      8     -37.5326      2.00000
      9     -37.5326      2.00000
     10     -37.5326      2.00000
     11     -37.5319      2.00000
     12     -37.5316      2.00000
     13     -37.5316      2.00000
     14     -37.5316      2.00000
     15     -37.5316      2.00000
     16     -37.5315      2.00000
     17     -37.5315      2.00000
     18     -37.5313      2.00000
     19     -37.5313      2.00000
     20     -37.5310      2.00000
     21     -37.5310      2.00000
     22     -37.5309      2.00000
     23     -37.5309      2.00000
     24     -37.5307      2.00000
     25     -37.5307      2.00000
     26     -37.5306      2.00000
     27     -37.5306      2.00000
     28     -37.5305      2.00000
     29     -37.5305      2.00000
     30     -37.5304      2.00000
     31     -37.5303      2.00000
     32     -37.5301      2.00000
     33     -37.5297      2.00000
     34     -37.5297      2.00000
     35     -37.5296      2.00000
     36     -37.5295      2.00000
     37     -37.5294      2.00000
     38     -37.5294      2.00000
     39     -37.5293      2.00000
     40     -37.5293      2.00000
     41     -37.5291      2.00000
     42     -37.5291      2.00000
     43     -37.5289      2.00000
     44     -37.5289      2.00000
     45     -37.5289      2.00000
     46     -37.5289      2.00000
     47     -37.5289      2.00000
     48     -37.5289      2.00000
     49     -37.5289      2.00000
     50     -37.5289      2.00000
     51     -37.5289      2.00000
     52     -37.5289      2.00000
     53     -37.5288      2.00000
     54     -37.5288      2.00000
     55     -37.5287      2.00000
     56     -37.5287      2.00000
     57     -37.5287      2.00000
     58     -37.5287      2.00000
     59     -37.5281      2.00000
     60     -37.5281      2.00000
     61     -37.5280      2.00000
     62     -37.5280      2.00000
     63     -37.5278      2.00000
     64     -37.5276      2.00000
     65     -37.5275      2.00000
     66     -37.5275      2.00000
     67     -37.5274      2.00000
     68     -37.5273      2.00000
     69     -37.5273      2.00000
     70     -37.5272      2.00000
     71     -37.5272      2.00000
     72     -37.5269      2.00000
     73     -37.5269      2.00000
     74     -37.5269      2.00000
     75     -37.5269      2.00000
     76     -37.5268      2.00000
     77     -37.5268      2.00000
     78     -37.5267      2.00000
     79     -37.5267      2.00000
     80     -37.5266      2.00000
     81     -37.5266      2.00000
     82     -37.5265      2.00000
     83     -37.5265      2.00000
     84     -37.5264      2.00000
     85     -37.5264      2.00000
     86     -37.5264      2.00000
     87     -37.5264      2.00000
     88     -37.5262      2.00000
     89     -37.5262      2.00000
     90     -37.5261      2.00000
     91     -37.5256      2.00000
     92     -37.5253      2.00000
     93     -37.5253      2.00000
     94     -37.5188      2.00000
     95     -37.5188      2.00000
     96     -37.5183      2.00000
     97      -9.1430      2.00000
     98      -8.3651      2.00000
     99      -8.3644      2.00000
    100      -8.3644      2.00000
    101      -8.3644      2.00000
    102      -8.3644      2.00000
    103      -8.3637      2.00000
    104      -7.8332      2.00000
    105      -7.8323      2.00000
    106      -7.8323      2.00000
    107      -7.8312      2.00000
    108      -7.8312      2.00000
    109      -7.8312      2.00000
    110      -7.8312      2.00000
    111      -7.8312      2.00000
    112      -7.8312      2.00000
    113      -7.8301      2.00000
    114      -7.8301      2.00000
    115      -7.8293      2.00000
    116      -7.7452      2.00000
    117      -7.7452      2.00000
    118      -7.7452      2.00000
    119      -7.7452      2.00000
    120      -7.3593      2.00000
[...]
 total augmentation occupancy for first ion, spin component:           1
  2.002   0.000   0.000   0.000   0.000   0.000   0.000   0.000   0.000   0.000   0.000   0.000   0.000
  0.000   2.002   0.000   0.000   0.000   0.000   0.000   0.000   0.000   0.000   0.000   0.000   0.000
  0.000   0.000   2.002   0.000   0.000   0.000   0.000   0.000   0.000   0.000   0.000   0.000   0.000
  0.000   0.000   0.000   0.059   0.000   0.000   0.000   0.000   0.000   0.000   0.000   0.000   0.000
  0.000   0.000   0.000   0.000   0.059   0.000   0.000   0.000   0.000   0.000   0.000   0.000   0.000
  0.000   0.000   0.000   0.000   0.000   0.059  -0.001   0.000   0.000   0.000   0.000   0.000   0.000
  0.000   0.000   0.000   0.000   0.000  -0.001   0.804   0.011   0.000   0.000   0.000   0.000  -0.001
  0.000   0.000   0.000   0.000   0.000   0.000   0.011   0.000   0.000   0.000   0.000   0.000   0.000
  0.000   0.000   0.000   0.000   0.000   0.000   0.000   0.000   0.006   0.000   0.000   0.000   0.000
  0.000   0.000   0.000   0.000   0.000   0.000   0.000   0.000   0.000   0.006   0.000   0.000   0.000
  0.000   0.000   0.000   0.000   0.000   0.000   0.000   0.000   0.000   0.000   0.030   0.000   0.000
  0.000   0.000   0.000   0.000   0.000   0.000   0.000   0.000   0.000   0.000   0.000   0.006   0.000
  0.000   0.000   0.000   0.000   0.000   0.000  -0.001   0.000   0.000   0.000   0.000   0.000   0.029


------------------------ aborting loop because EDIFF is reached ----------------------------------------


    CHARGE:  cpu time    0.97: real time    0.97
    FORLOC:  cpu time    0.06: real time    0.06
    FORNL :  cpu time   12.64: real time   12.63
    STRESS:  cpu time   19.58: real time   19.57
    FORCOR:  cpu time    0.23: real time    0.23
    FORHAR:  cpu time    0.10: real time    0.10
    MIXING:  cpu time    0.01: real time    0.01
    OFIELD:  cpu time    0.00: real time    0.00

  FORCE on cell =-STRESS in cart. coord.  units (eV):
  Direction    XX          YY          ZZ          XY          YZ          ZX
  --------------------------------------------------------------------------------------
  Alpha Z  1233.74240  1233.74240  1233.74240
  Ewald   -8375.02515 -8375.04811 -8375.04811     0.00000     0.00000     0.00000
  Hartree  3069.02624  3069.02103  3069.02103     0.00000     0.00000     0.00000
  E(xc)   -2121.24565 -2121.24563 -2121.24563     0.00000     0.00000     0.00000
  Local     -29.82833   -29.80203   -29.80203     0.00000     0.00000     0.00000
  n-local   299.98322   299.79591   300.16768     0.00000     0.00000     0.00000
  augment   260.68740   260.68747   260.68731     0.00000    -0.00005    -0.00005
  Kinetic  5668.19005  5668.58578  5667.79547     0.00000     0.00000     0.00000
  Fock        0.00000     0.00000     0.00000     0.00000     0.00000     0.00000
  -------------------------------------------------------------------------------------
  Total       5.53018     5.52748     5.52748     0.00000     0.00000     0.00000
  in kB       8.04435     8.04041     8.04041     0.00000     0.00000     0.00000
  external pressure =        8.04 kB  Pullay stress =        0.00 kB


 VOLUME and BASIS-vectors are now :
 -----------------------------------------------------------------------------
  energy-cutoff  :      525.11
  volume of cell :     1101.44
      direct lattice vectors                 reciprocal lattice vectors
    10.327290060  0.000000000  0.000000000     0.096830823  0.000000000  0.000000000
     0.000000000 10.327290060  0.000000000     0.000000000  0.096830823  0.000000000
     0.000000000  0.000000000 10.327290060     0.000000000  0.000000000  0.096830823

  length of vectors
    10.327290060 10.327290060 10.327290060     0.096830823  0.096830823  0.096830823


 FORCES acting on ions
    electron-ion (+dipol)            ewald-force                    non-local-force                 convergence-correction
 -----------------------------------------------------------------------------------------------
   -.921E+00 -.952E-14 0.441E-07   0.840E+00 0.444E-14 0.978E-14   0.953E-01 0.414E-24 -.103E-24   -.277E-06 0.100E-12 0.352E-13
   -.930E+00 0.191E-13 0.442E-07   0.850E+00 -.409E-13 0.534E-14   0.964E-01 0.000E+00 -.129E-24   0.364E-06 0.103E-12 -.330E-13
   -.609E-02 -.284E-13 0.106E-10   0.741E-02 -.187E-13 -.887E-14   -.851E-03 -.129E-25 0.129E-25   0.276E-06 -.235E-12 0.455E-13
   -.571E-02 -.469E-11 0.139E-10   0.705E-02 -.178E-14 0.139E-16   -.865E-03 -.258E-25 0.000E+00   -.556E-07 -.252E-12 -.984E-14
   -.609E-02 -.186E-13 -.223E-12   0.741E-02 -.107E-13 -.238E-13   -.851E-03 0.000E+00 0.258E-25   0.276E-06 0.971E-13 -.190E-12
   -.571E-02 -.177E-13 -.203E-11   0.705E-02 -.142E-13 0.242E-13   -.865E-03 0.646E-26 -.129E-25   -.556E-07 0.893E-13 -.165E-12
   -.990E-03 -.187E-13 -.245E-12   0.992E-03 -.195E-13 -.326E-13   -.778E-05 0.258E-25 0.000E+00   -.329E-06 -.240E-12 -.193E-12
   -.824E-03 -.618E-11 0.293E-11   0.827E-03 0.000E+00 -.131E-13   -.953E-05 0.517E-25 0.000E+00   0.405E-06 -.242E-12 -.165E-12
   -.268E-01 0.708E-01 0.708E-01   0.265E-01 -.665E-01 -.665E-01   0.272E-03 -.327E-02 -.327E-02   0.357E-07 -.450E-06 -.450E-06
   -.263E-01 -.710E-01 -.710E-01   0.260E-01 0.668E-01 0.668E-01   0.267E-03 0.327E-02 0.327E-02   0.445E-08 0.119E-06 0.119E-06
   -.268E-01 -.708E-01 0.708E-01   0.265E-01 0.665E-01 -.665E-01   0.272E-03 0.327E-02 -.327E-02   0.357E-07 0.450E-06 -.450E-06
   -.263E-01 0.710E-01 -.710E-01   0.260E-01 -.668E-01 0.668E-01   0.267E-03 -.327E-02 0.327E-02   0.445E-08 -.119E-06 0.119E-06
   -.268E-01 0.708E-01 -.708E-01   0.265E-01 -.665E-01 0.665E-01   0.272E-03 -.327E-02 0.327E-02   0.357E-07 -.450E-06 0.450E-06
   -.263E-01 -.710E-01 0.710E-01   0.260E-01 0.668E-01 -.668E-01   0.267E-03 0.327E-02 -.327E-02   0.445E-08 0.119E-06 -.119E-06
   -.268E-01 -.708E-01 -.708E-01   0.265E-01 0.665E-01 0.665E-01   0.272E-03 0.327E-02 0.327E-02   0.357E-07 0.450E-06 0.450E-06
   -.263E-01 0.710E-01 0.710E-01   0.260E-01 -.668E-01 -.668E-01   0.267E-03 -.327E-02 -.327E-02   0.445E-08 -.119E-06 -.119E-06
   0.401E+00 -.270E-13 0.234E-02   -.383E+00 0.124E-13 -.230E-02   -.149E-01 0.129E-25 -.720E-04   -.992E-06 0.780E-13 0.624E-07
   -.130E+00 -.163E-13 -.233E-03   0.117E+00 0.124E-13 0.238E-03   0.101E-01 0.000E+00 -.453E-05   0.855E-06 0.801E-13 -.422E-06
   0.472E-01 -.115E-12 0.587E-04   -.456E-01 0.711E-14 -.600E-04   -.119E-02 -.258E-25 0.136E-05   -.433E-06 -.225E-12 -.462E-06
   -.407E-01 -.103E-12 -.439E-04   0.390E-01 0.213E-13 0.412E-04   0.135E-02 0.000E+00 0.204E-05   0.333E-06 -.202E-12 0.179E-07
   0.401E+00 -.177E-13 -.234E-02   -.383E+00 0.266E-13 0.230E-02   -.149E-01 -.258E-25 0.720E-04   -.992E-06 0.903E-13 -.624E-07
   -.130E+00 -.289E-13 0.233E-03   0.117E+00 -.178E-14 -.238E-03   0.101E-01 0.000E+00 0.453E-05   0.855E-06 0.109E-12 0.422E-06
   0.472E-01 0.181E-11 -.587E-04   -.456E-01 0.888E-14 0.600E-04   -.119E-02 0.129E-25 -.136E-05   -.433E-06 -.241E-12 0.462E-06
   -.407E-01 -.771E-11 0.439E-04   0.390E-01 0.888E-14 -.412E-04   0.135E-02 0.258E-25 -.204E-05   0.333E-06 -.232E-12 -.179E-07
   0.401E+00 0.234E-02 0.484E-10   -.383E+00 -.230E-02 -.176E-14   -.149E-01 -.720E-04 0.517E-25   -.992E-06 0.624E-07 -.937E-14
   -.130E+00 -.233E-03 0.422E-10   0.117E+00 0.238E-03 -.337E-13   0.101E-01 -.453E-05 0.889E-26   0.855E-06 -.422E-06 0.284E-14
   0.401E+00 -.234E-02 0.471E-10   -.383E+00 0.230E-02 -.337E-13   -.149E-01 0.720E-04 -.258E-25   -.992E-06 -.624E-07 0.366E-14
   -.130E+00 0.233E-03 0.482E-10   0.117E+00 -.238E-03 -.266E-13   0.101E-01 0.453E-05 0.000E+00   0.855E-06 0.422E-06 0.259E-13
   0.472E-01 0.587E-04 -.243E-12   -.456E-01 -.600E-04 -.380E-13   -.119E-02 0.136E-05 0.000E+00   -.433E-06 -.462E-06 -.152E-12
   -.407E-01 -.439E-04 -.623E-11   0.390E-01 0.412E-04 -.202E-13   0.135E-02 0.204E-05 0.646E-26   0.333E-06 0.179E-07 -.169E-12
   0.472E-01 -.587E-04 0.458E-12   -.456E-01 0.600E-04 -.220E-13   -.119E-02 -.136E-05 0.258E-25   -.433E-06 0.462E-06 -.169E-12
   -.407E-01 0.439E-04 -.765E-11   0.390E-01 -.412E-04 -.291E-13   0.135E-02 -.204E-05 0.000E+00   0.333E-06 -.179E-07 -.212E-12
   0.151E+01 0.385E-13 0.736E-06   -.145E+01 0.249E-13 0.172E-14   -.121E+00 0.000E+00 -.207E-24   -.263E-06 0.976E-13 0.339E-13
   -.163E+00 0.623E-13 0.113E-06   0.161E+00 0.000E+00 0.347E-14   0.430E-02 -.207E-24 0.905E-25   0.447E-07 0.109E-12 0.452E-13
   0.521E-01 0.440E-11 -.131E-10   -.511E-01 -.142E-13 -.815E-16   -.223E-02 0.620E-24 -.103E-24   -.271E-06 -.183E-12 0.417E-13
   -.426E-01 -.474E-11 -.220E-10   0.401E-01 -.142E-13 -.143E-13   0.543E-02 0.000E+00 -.162E-26   0.284E-06 -.187E-12 0.561E-13
   0.521E-01 0.289E-13 -.475E-09   -.511E-01 0.000E+00 -.991E-14   -.223E-02 0.000E+00 0.207E-24   -.271E-06 0.103E-12 -.124E-12
   -.426E-01 0.421E-13 -.489E-09   0.401E-01 0.000E+00 -.281E-14   0.543E-02 0.323E-26 0.258E-25   0.284E-06 0.103E-12 -.122E-12
   0.215E-01 0.100E-11 0.642E-12   -.211E-01 -.142E-13 0.785E-14   -.956E-03 0.129E-25 0.000E+00   -.173E-06 -.189E-12 -.123E-12
   -.201E-01 -.178E-11 -.140E-11   0.197E-01 0.000E+00 0.221E-13   0.867E-03 0.000E+00 0.000E+00   0.181E-06 -.181E-12 -.135E-12
   0.977E-01 0.295E-03 0.295E-03   -.963E-01 -.293E-03 -.293E-03   -.279E-02 -.539E-05 -.539E-05   -.128E-06 -.808E-07 -.808E-07
   -.551E-01 -.860E-04 -.860E-04   0.542E-01 0.879E-04 0.879E-04   0.203E-02 -.206E-05 -.206E-05   0.245E-06 -.136E-06 -.136E-06
   0.977E-01 -.295E-03 0.295E-03   -.963E-01 0.293E-03 -.293E-03   -.279E-02 0.539E-05 -.539E-05   -.128E-06 0.808E-07 -.808E-07
   -.551E-01 0.860E-04 -.860E-04   0.542E-01 -.879E-04 0.879E-04   0.203E-02 0.206E-05 -.206E-05   0.245E-06 0.136E-06 -.136E-06
   0.977E-01 0.295E-03 -.295E-03   -.963E-01 -.293E-03 0.293E-03   -.279E-02 -.539E-05 0.539E-05   -.128E-06 -.808E-07 0.808E-07
   -.551E-01 -.860E-04 0.860E-04   0.542E-01 0.879E-04 -.879E-04   0.203E-02 -.206E-05 0.206E-05   0.245E-06 -.136E-06 0.136E-06
   0.977E-01 -.295E-03 -.295E-03   -.963E-01 0.293E-03 0.293E-03   -.279E-02 0.539E-05 0.539E-05   -.128E-06 0.808E-07 0.808E-07
   -.551E-01 0.860E-04 0.860E-04   0.542E-01 -.879E-04 -.879E-04   0.203E-02 0.206E-05 0.206E-05   0.245E-06 0.136E-06 0.136E-06
   -.818E-01 0.394E-13 0.152E+00   0.779E-01 0.195E-13 -.148E+00   0.769E-02 -.724E-24 -.104E-01   -.167E-06 0.952E-13 0.321E-07
   -.814E-01 0.310E-13 -.153E+00   0.776E-01 0.213E-13 0.149E+00   0.771E-02 0.000E+00 0.104E-01   -.451E-09 0.982E-13 -.174E-06
   -.255E-02 0.128E-12 0.126E-01   0.257E-02 0.187E-13 -.122E-01   -.767E-04 0.310E-24 -.916E-03   0.372E-07 -.177E-12 -.109E-06
   -.236E-02 -.889E-12 -.126E-01   0.238E-02 0.249E-13 0.122E-01   -.804E-04 0.000E+00 0.918E-03   -.752E-07 -.182E-12 -.689E-07
   -.818E-01 0.283E-13 -.152E+00   0.779E-01 0.195E-13 0.148E+00   0.769E-02 -.310E-24 0.104E-01   -.167E-06 0.112E-12 -.321E-07
   -.814E-01 0.317E-13 0.153E+00   0.776E-01 0.178E-13 -.149E+00   0.771E-02 0.207E-24 -.104E-01   -.451E-09 0.109E-12 0.174E-06
   -.255E-02 0.223E-13 -.126E-01   0.257E-02 0.240E-13 0.122E-01   -.767E-04 -.414E-24 0.916E-03   0.372E-07 -.193E-12 0.109E-06
   -.236E-02 -.572E-11 0.126E-01   0.238E-02 0.249E-13 -.122E-01   -.804E-04 0.517E-25 -.918E-03   -.752E-07 -.193E-12 0.689E-07
   -.818E-01 0.152E+00 -.516E-10   0.779E-01 -.148E+00 0.353E-13   0.769E-02 -.104E-01 0.000E+00   -.167E-06 0.321E-07 0.475E-13
   -.814E-01 -.153E+00 -.471E-10   0.776E-01 0.149E+00 0.131E-13   0.771E-02 0.104E-01 0.207E-24   -.451E-09 -.174E-06 0.257E-13
   -.818E-01 -.152E+00 -.516E-10   0.779E-01 0.148E+00 0.229E-13   0.769E-02 0.104E-01 0.000E+00   -.167E-06 -.321E-07 0.671E-13
   -.814E-01 0.153E+00 -.426E-10   0.776E-01 -.149E+00 0.956E-14   0.771E-02 -.104E-01 0.000E+00   -.451E-09 0.174E-06 0.371E-13
   -.255E-02 0.126E-01 0.585E-12   0.257E-02 -.122E-01 0.118E-13   -.767E-04 -.916E-03 -.103E-24   0.372E-07 -.109E-06 -.137E-12
   -.236E-02 -.126E-01 0.129E-11   0.238E-02 0.122E-01 0.153E-13   -.804E-04 0.918E-03 0.258E-25   -.752E-07 -.689E-07 -.105E-12
   -.255E-02 -.126E-01 0.482E-12   0.257E-02 0.122E-01 0.233E-13   -.767E-04 0.916E-03 -.103E-24   0.372E-07 0.109E-06 -.152E-12
   -.236E-02 0.126E-01 0.151E-12   0.238E-02 -.122E-01 0.260E-13   -.804E-04 -.918E-03 0.000E+00   -.752E-07 0.689E-07 -.116E-12
 -----------------------------------------------------------------------------------------------
   -.119E+00 -.235E-10 0.935E-06   0.136E-13 -.159E-13 0.153E-13   0.119E+00 0.000E+00 -.217E-17   -.725E-06 -.264E-12 -.539E-12
 
 
 POSITION                                       TOTAL-FORCE (eV/Angst)
 -----------------------------------------------------------------------------------
      0.00000      0.00000      0.00000         0.014257      0.000000      0.000000
      5.16365      0.00000      0.00000         0.015467      0.000000      0.000000
      0.00000      5.16365      0.00000         0.000471      0.000000      0.000000
      5.16365      5.16365      0.00000         0.000474      0.000000      0.000000
      0.00000      0.00000      5.16365         0.000471      0.000000      0.000000
      5.16365      0.00000      5.16365         0.000474      0.000000      0.000000
      0.00000      5.16365      5.16365        -0.000006      0.000000      0.000000
      5.16365      5.16365      5.16365        -0.000006      0.000000      0.000000
      0.00000      2.58182      2.58182        -0.000016      0.000963      0.000963
      5.16365      2.58182      2.58182        -0.000014     -0.000962     -0.000962
      0.00000      7.74547      2.58182        -0.000016     -0.000963      0.000963
      5.16365      7.74547      2.58182        -0.000014      0.000962     -0.000962
      0.00000      2.58182      7.74547        -0.000016      0.000963     -0.000963
      5.16365      2.58182      7.74547        -0.000014     -0.000962      0.000962
      0.00000      7.74547      7.74547        -0.000016     -0.000963     -0.000963
      5.16365      7.74547      7.74547        -0.000014      0.000962      0.000962
      2.58182      0.00000      2.58182         0.002926      0.000000     -0.000038
      7.74547      0.00000      2.58182        -0.002662      0.000000      0.000000
      2.58182      5.16365      2.58182         0.000365      0.000000      0.000000
      7.74547      5.16365      2.58182        -0.000419      0.000000     -0.000001
      2.58182      0.00000      7.74547         0.002926      0.000000      0.000038
      7.74547      0.00000      7.74547        -0.002662      0.000000      0.000000
      2.58182      5.16365      7.74547         0.000365      0.000000      0.000000
      7.74547      5.16365      7.74547        -0.000419      0.000000      0.000001
      2.58182      2.58182      0.00000         0.002926     -0.000038      0.000000
      7.74547      2.58182      0.00000        -0.002662      0.000000      0.000000
      2.58182      7.74547      0.00000         0.002926      0.000038      0.000000
      7.74547      7.74547      0.00000        -0.002662      0.000000      0.000000
      2.58182      2.58182      5.16365         0.000365      0.000000      0.000000
      7.74547      2.58182      5.16365        -0.000419     -0.000001      0.000000
      2.58182      7.74547      5.16365         0.000365      0.000000      0.000000
      7.74547      7.74547      5.16365        -0.000419      0.000001      0.000000
      2.59182      0.00000      0.00000        -0.067004      0.000000      0.000000
      7.74547      0.00000      0.00000         0.002232      0.000000      0.000000
      2.58182      5.16365      0.00000        -0.001245      0.000000      0.000000
      7.74547      5.16365      0.00000         0.002923      0.000000      0.000000
      2.58182      0.00000      5.16365        -0.001245      0.000000      0.000000
      7.74547      0.00000      5.16365         0.002923      0.000000      0.000000
      2.58182      5.16365      5.16365        -0.000492      0.000000      0.000000
      7.74547      5.16365      5.16365         0.000483      0.000000      0.000000
      2.58182      2.58182      2.58182        -0.001451     -0.000003     -0.000003
      7.74547      2.58182      2.58182         0.001094      0.000000      0.000000
      2.58182      7.74547      2.58182        -0.001451      0.000003     -0.000003
      7.74547      7.74547      2.58182         0.001094      0.000000      0.000000
      2.58182      2.58182      7.74547        -0.001451     -0.000003      0.000003
      7.74547      2.58182      7.74547         0.001094      0.000000      0.000000
      2.58182      7.74547      7.74547        -0.001451      0.000003      0.000003
      7.74547      7.74547      7.74547         0.001094      0.000000      0.000000
      0.00000      0.00000      2.58182         0.003861      0.000000     -0.005837
      5.16365      0.00000      2.58182         0.003875      0.000000      0.005879
      0.00000      5.16365      2.58182        -0.000051      0.000000     -0.000547
      5.16365      5.16365      2.58182        -0.000052      0.000000      0.000549
      0.00000      0.00000      7.74547         0.003861      0.000000      0.005837
      5.16365      0.00000      7.74547         0.003875      0.000000     -0.005879
      0.00000      5.16365      7.74547        -0.000051      0.000000      0.000547
      5.16365      5.16365      7.74547        -0.000052      0.000000     -0.000549
      0.00000      2.58182      0.00000         0.003861     -0.005837      0.000000
      5.16365      2.58182      0.00000         0.003875      0.005879      0.000000
      0.00000      7.74547      0.00000         0.003861      0.005837      0.000000
      5.16365      7.74547      0.00000         0.003875     -0.005879      0.000000
      0.00000      2.58182      5.16365        -0.000051     -0.000547      0.000000
      5.16365      2.58182      5.16365        -0.000052      0.000549      0.000000
      0.00000      7.74547      5.16365        -0.000051      0.000547      0.000000
      5.16365      7.74547      5.16365        -0.000052     -0.000549      0.000000
 -----------------------------------------------------------------------------------
    total drift:                               -0.000002      0.000000      0.000001


--------------------------------------------------------------------------------------------------------



  FREE ENERGIE OF THE ION-ELECTRON SYSTEM (eV)
  ---------------------------------------------------
  free  energy   TOTEN  =      -289.78824227 eV

  energy  without entropy=     -289.78824227  energy(sigma->0) =     -289.78824227
 


--------------------------------------------------------------------------------------------------------


    POTLOK:  cpu time    0.40: real time    0.40


--------------------------------------------------------------------------------------------------------


     LOOP+:  cpu time  535.44: real time  535.57
    4ORBIT:  cpu time    0.00: real time    0.00

 total amount of memory used by VASP on root node   132340. kBytes
========================================================================

   base      :      30000. kBytes
   nonl-proj :      13731. kBytes
   fftplans  :      33042. kBytes
   grid      :      15687. kBytes
   one-center:        105. kBytes
   wavefun   :      39775. kBytes
 
  
  
 General timing and accounting informations for this job:
 ========================================================
  
                  Total CPU time used (sec):      543.113
                            User time (sec):      526.803
                          System time (sec):       16.311
                         Elapsed time (sec):      543.485
  
                   Maximum memory used (kb):      188052.
                   Average memory used (kb):           0.
  
                          Minor page faults:      8049426
                          Major page faults:           47
                 Voluntary context switches:         3127
