    8    8   20    1
  0.1755761E+02  0.5198185E-09  0.5198185E-09  0.5198185E-09  0.5000000E-15
  1.000000000000000E-004
  CAR 
 unknown system                          
     56     10     36
 
  0.0000000E+00  0.0000000E+00  0.0000000E+00  0.1562500E-01
    1      -37.750416
    2      -37.750416
    3      -37.750416
    4      -37.746811
    5      -37.746811
    6      -37.746811
    7      -37.746811
    8      -37.746810
    9      -37.746810
   10      -37.743837
   11      -37.743837
   12      -37.743837
   13       -9.202892
   14       -7.488007
   15       -7.488007
   16       -7.488007
   17       -0.766891
   18       -0.766891
   19       -0.766891
   20        1.788845
   21        1.788845
   22        1.788845
   23        1.788845
   24        1.788845
   25        1.788845
   26        3.500230
   27        3.500230
   28        3.500230
   29        6.215353
   30        6.215353
   31        6.215353
   32        7.118037
   33        7.731747
   34        7.731747
   35        7.731747
   36       11.350051
 
  0.2500000E+00  0.0000000E+00  0.0000000E+00  0.9375000E-01
    1      -37.749838
    2      -37.749838
    3      -37.749657
    4      -37.747257
    5      -37.747257
    6      -37.746755
    7      -37.746755
    8      -37.746292
    9      -37.746292
   10      -37.744805
   11      -37.744310
   12      -37.744310
   13       -8.997419
   14       -7.801638
   15       -7.463466
   16       -7.463466
   17       -0.513057
   18       -0.513057
   19       -0.297013
   20        1.203999
   21        1.203999
   22        1.407133
   23        1.407133
   24        1.982481
   25        1.982481
   26        2.468599
   27        3.167950
   28        3.167950
   29        6.856746
   30        7.247287
   31        7.247287
   32        8.048925
   33        8.279382
   34        8.851353
   35        8.851353
   36       10.366505
 
  0.5000000E+00  0.0000000E+00  0.0000000E+00  0.4687500E-01
    1      -37.748490
    2      -37.748490
    3      -37.748490
    4      -37.748490
    5      -37.747486
    6      -37.747486
    7      -37.746669
    8      -37.746669
    9      -37.745431
   10      -37.745431
   11      -37.745431
   12      -37.745431
   13       -8.450345
   14       -8.450345
   15       -7.438495
   16       -7.438495
   17        0.208995
   18        0.208995
   19        0.208995
   20        0.208995
   21        0.902509
   22        0.902509
   23        1.097009
   24        1.097009
   25        2.511108
   26        2.511108
   27        2.511108
   28        2.511108
   29        8.449071
   30        8.449071
   31        8.726063
   32        8.726063
   33        8.975547
   34        8.975547
   35       11.346680
   36       11.347875
 
  0.2500000E+00  0.2500000E+00  0.0000000E+00  0.1875000E+00
    1      -37.749437
    2      -37.749437
    3      -37.749345
    4      -37.748177
    5      -37.746767
    6      -37.746767
    7      -37.746279
    8      -37.746122
    9      -37.746027
   10      -37.746027
   11      -37.744746
   12      -37.744073
   13       -8.805039
   14       -7.728180
   15       -7.728180
   16       -7.485546
   17       -0.320686
   18       -0.320686
   19       -0.262728
   20        0.256419
   21        1.418853
   22        1.418853
   23        1.518785
   24        1.879160
   25        1.879160
   26        2.112970
   27        2.770552
   28        3.389846
   29        7.326917
   30        7.792250
   31        7.792250
   32        8.790589
   33        9.120742
   34        9.120742
   35       10.106786
   36       10.594237
 
  0.5000000E+00  0.2500000E+00  0.0000000E+00  0.1875000E+00
    1      -37.749094
    2      -37.749094
    3      -37.748256
    4      -37.748256
    5      -37.748102
    6      -37.748102
    7      -37.745847
    8      -37.745847
    9      -37.745797
   10      -37.745797
   11      -37.744838
   12      -37.744838
   13       -8.301800
   14       -8.301800
   15       -7.580819
   16       -7.580819
   17       -0.270424
   18       -0.270424
   19        0.376498
   20        0.376498
   21        0.447516
   22        0.447516
   23        2.012376
   24        2.012376
   25        2.019344
   26        2.019344
   27        2.808561
   28        2.808561
   29        8.688841
   30        8.688841
   31        9.242929
   32        9.242929
   33        9.862062
   34        9.862062
   35       10.493786
   36       10.515433
 
  0.5000000E+00  0.5000000E+00  0.0000000E+00  0.4687500E-01
    1      -37.749131
    2      -37.749131
    3      -37.749131
    4      -37.749131
    5      -37.746914
    6      -37.746914
    7      -37.746914
    8      -37.746914
    9      -37.744932
   10      -37.744932
   11      -37.744932
   12      -37.744932
   13       -7.939071
   14       -7.939071
   15       -7.939071
   16       -7.939071
   17       -0.259506
   18       -0.259506
   19       -0.259506
   20       -0.259506
   21        1.118000
   22        1.118000
   23        1.118000
   24        1.118000
   25        2.855131
   26        2.855131
   27        2.855131
   28        2.855131
   29        9.083243
   30        9.083243
   31        9.083243
   32        9.083243
   33       11.037251
   34       11.037771
   35       11.039199
   36       11.073503
 
  0.2500000E+00  0.2500000E+00  0.2500000E+00  0.1250000E+00
    1      -37.749825
    2      -37.749825
    3      -37.749825
    4      -37.747551
    5      -37.746795
    6      -37.746795
    7      -37.746795
    8      -37.745824
    9      -37.745824
   10      -37.745824
   11      -37.744352
   12      -37.744352
   13       -8.628724
   14       -7.695094
   15       -7.695094
   16       -7.695094
   17       -0.610561
   18       -0.610561
   19       -0.610561
   20        0.643717
   21        1.246316
   22        1.246316
   23        1.246316
   24        2.272730
   25        2.272730
   26        2.272730
   27        3.170277
   28        3.170277
   29        7.823499
   30        7.823499
   31        7.823499
   32        8.340986
   33       10.153950
   34       10.153950
   35       10.153950
   36       11.243959
 
  0.5000000E+00  0.2500000E+00  0.2500000E+00  0.1875000E+00
    1      -37.750107
    2      -37.750107
    3      -37.749283
    4      -37.749283
    5      -37.746746
    6      -37.746746
    7      -37.745572
    8      -37.745572
    9      -37.745111
   10      -37.745111
   11      -37.745054
   12      -37.745054
   13       -8.179190
   14       -8.179190
   15       -7.661169
   16       -7.661169
   17       -0.878390
   18       -0.878390
   19       -0.314907
   20       -0.314907
   21        1.316490
   22        1.316490
   23        2.325411
   24        2.325411
   25        2.563792
   26        2.563792
   27        2.692043
   28        2.692043
   29        8.669271
   30        8.669271
   31        9.013433
   32        9.013433
   33        9.495296
   34        9.495296
   35       10.048525
   36       10.048525
 
  0.5000000E+00  0.5000000E+00  0.2500000E+00  0.9375000E-01
    1      -37.750400
    2      -37.750400
    3      -37.750400
    4      -37.750400
    5      -37.745699
    6      -37.745699
    7      -37.745699
    8      -37.745699
    9      -37.744907
   10      -37.744907
   11      -37.744907
   12      -37.744907
   13       -7.899504
   14       -7.899504
   15       -7.899504
   16       -7.899504
   17       -0.979080
   18       -0.979080
   19       -0.979080
   20       -0.979080
   21        2.112963
   22        2.112963
   23        2.112963
   24        2.112963
   25        2.875341
   26        2.875341
   27        2.875341
   28        2.875341
   29        8.718932
   30        8.718932
   31        8.718932
   32        8.718932
   33        9.917791
   34        9.917791
   35        9.917791
   36        9.917791
 
  0.5000000E+00  0.5000000E+00  0.5000000E+00  0.1562500E-01
    1      -37.751183
    2      -37.751183
    3      -37.751183
    4      -37.751183
    5      -37.744941
    6      -37.744941
    7      -37.744941
    8      -37.744941
    9      -37.744941
   10      -37.744941
   11      -37.744941
   12      -37.744941
   13       -7.858612
   14       -7.858612
   15       -7.858612
   16       -7.858612
   17       -1.411095
   18       -1.411095
   19       -1.411095
   20       -1.411095
   21        2.895926
   22        2.895926
   23        2.895926
   24        2.895926
   25        2.895926
   26        2.895926
   27        2.895926
   28        2.895926
   29        7.905741
   30        7.905741
   31        7.905741
   32        7.905741
   33       10.332816
   34       10.332816
   35       10.332816
   36       10.332816
