 vasp.5.3.5 31Mar14 (build Nov 07 2014 11:36:17) complex                        
  
 executed on             LinuxIFC date 2015.10.15  01:05:41
 running on   20 total cores
 distrk:  each k-point on   20 cores,    1 groups
 distr:  one band on NCORES_PER_BAND=   5 cores,    4 groups


--------------------------------------------------------------------------------------------------------


 INCAR:
 POTCAR:    PAW_PBE Mg_pv 13Apr2007               
 POTCAR:    PAW_PBE S 06Sep2000                   
 POTCAR:    PAW_PBE Mg_pv 13Apr2007               
   VRHFIN =Mg: p6s2                                                             
   LEXCH  = PE                                                                  
   EATOM  =  1056.7344 eV,   77.6678 Ry                                         
                                                                                
   TITEL  = PAW_PBE Mg_pv 13Apr2007                                             
   LULTRA =        F    use ultrasoft PP ?                                      
   IUNSCR =        1    unscreen: 0-lin 1-nonlin 2-no                           
   RPACOR =    1.500    partial core radius                                     
   POMASS =   24.305; ZVAL   =    8.000    mass and valenz                      
   RCORE  =    2.000    outmost cutoff radius                                   
   RWIGS  =    2.000; RWIGS  =    1.058    wigner-seitz radius (au A)           
   ENMAX  =  403.929; ENMIN  =  302.947 eV                                      
   RCLOC  =    1.506    cutoff for local pot                                    
   LCOR   =        T    correct aug charges                                     
   LPAW   =        T    paw PP                                                  
   EAUG   =  758.780                                                            
   DEXC   =    0.000                                                            
   RMAX   =    2.045    core radius for proj-oper                               
   RAUG   =    1.300    factor for augmentation sphere                          
   RDEP   =    2.025    radius for radial grids                                 
   RDEPT  =    1.557    core radius for aug-charge                              
                                                                                
   Atomic configuration                                                         
    5 entries                                                                   
     n  l   j            E        occ.                                          
     1  0  0.50     -1259.6230   2.0000                                         
     2  0  0.50       -79.8442   2.0000                                         
     2  1  1.50       -46.6121   6.0000                                         
     3  0  0.50        -4.7055   2.0000                                         
     3  2  1.50        -1.3606   0.0000                                         
   Description                                                                  
     l       E           TYP  RCUT    TYP  RCUT                                 
     1    -46.6121073     23  1.600                                             
     1      2.7211652     23  1.600                                             
     0     -4.7054661     23  2.000                                             
     0     61.2262170     23  2.000                                             
     2     -1.3605826     23  2.000                                             
  local pseudopotential read in
  partial core-charges read in
  partial kinetic energy density read in
  atomic valenz-charges read in
  non local Contribution for L=           1  read in
    real space projection operators read in
  non local Contribution for L=           1  read in
    real space projection operators read in
  non local Contribution for L=           0  read in
    real space projection operators read in
  non local Contribution for L=           0  read in
    real space projection operators read in
  non local Contribution for L=           2  read in
    real space projection operators read in
    PAW grid and wavefunctions read in
 
   number of l-projection  operators is LMAX  =           5
   number of lm-projection operators is LMMAX =          13
 
 POTCAR:    PAW_PBE S 06Sep2000                   
   VRHFIN =S : s2p4                                                             
   LEXCH  = PE                                                                  
   EATOM  =   276.8230 eV,   20.3459 Ry                                         
                                                                                
   TITEL  = PAW_PBE S 06Sep2000                                                 
   LULTRA =        F    use ultrasoft PP ?                                      
   IUNSCR =        1    unscreen: 0-lin 1-nonlin 2-no                           
   RPACOR =    1.500    partial core radius                                     
   POMASS =   32.066; ZVAL   =    6.000    mass and valenz                      
   RCORE  =    1.900    outmost cutoff radius                                   
   RWIGS  =    2.200; RWIGS  =    1.164    wigner-seitz radius (au A)           
   ENMAX  =  258.689; ENMIN  =  194.016 eV                                      
   ICORE  =        2    local potential                                         
   LCOR   =        T    correct aug charges                                     
   LPAW   =        T    paw PP                                                  
   EAUG   =  335.092                                                            
   DEXC   =    0.000                                                            
   RMAX   =    1.942    core radius for proj-oper                               
   RAUG   =    1.300    factor for augmentation sphere                          
   RDEP   =    1.954    radius for radial grids                                 
   RDEPT  =    1.744    core radius for aug-charge                              
                                                                                
   Atomic configuration                                                         
    6 entries                                                                   
     n  l   j            E        occ.                                          
     1  0  0.50     -2405.8406   2.0000                                         
     2  0  0.50      -211.7007   2.0000                                         
     2  1  1.50      -156.4958   6.0000                                         
     3  0  0.50       -17.2562   2.0000                                         
     3  1  0.50        -7.0085   4.0000                                         
     3  2  1.50        -6.8029   0.0000                                         
   Description                                                                  
     l       E           TYP  RCUT    TYP  RCUT                                 
     0    -17.2561641     23  1.900                                             
     0    -15.8743224     23  1.900                                             
     1     -7.0085400     23  1.900                                             
     1     -2.7779785     23  1.900                                             
     2     -6.8029130     23  1.900                                             
  local pseudopotential read in
  partial core-charges read in
  partial kinetic energy density read in
  atomic valenz-charges read in
  non local Contribution for L=           0  read in
    real space projection operators read in
  non local Contribution for L=           0  read in
    real space projection operators read in
  non local Contribution for L=           1  read in
    real space projection operators read in
  non local Contribution for L=           1  read in
    real space projection operators read in
    PAW grid and wavefunctions read in
 
   number of l-projection  operators is LMAX  =           4
   number of lm-projection operators is LMMAX =           8
 

 ----------------------------------------------------------------------------- 
|                                                                             |
|  ADVICE TO THIS USER RUNNING 'VASP/VAMP'   (HEAR YOUR MASTER'S VOICE ...):  |
|                                                                             |
|      You enforced a specific xc-type in the INCAR file,                     |
|      a different type was found on the POTCAR file                          |
|          I HOPE YOU KNOW, WHAT YOU ARE  DOING                               |
|                                                                             |
 ----------------------------------------------------------------------------- 

  PAW_PBE Mg_pv 13Apr2007               :
 energy of atom  1       EATOM=-1056.7344
 kinetic energy error for atom=    0.0336 (will be added to EATOM!!)
  PAW_PBE S 06Sep2000                   :
 energy of atom  2       EATOM= -276.8230
 kinetic energy error for atom=    0.0015 (will be added to EATOM!!)
 
 
 POSCAR:  Mg S                                   
  positions in direct lattice
  No initial velocities read in
 exchange correlation table for  LEXCH =       14
   RHO(1)=    0.500       N(1)  =     2000
   RHO(2)=  100.500       N(2)  =     4000
 


--------------------------------------------------------------------------------------------------------


 ion  position               nearest neighbor table
   1  0.000  0.000  0.000-   5 2.60   7 2.60   8 2.60   7 2.60   8 2.60   5 2.60
   2  0.000  0.500  0.500-   6 2.60   7 2.60   8 2.60   8 2.60   7 2.60   6 2.60
   3  0.500  0.000  0.500-   5 2.60   6 2.60   7 2.60   5 2.60   6 2.60   7 2.60
   4  0.500  0.500  0.000-   5 2.60   6 2.60   8 2.60   6 2.60   5 2.60   8 2.60
   5  0.500  0.000  0.000-   1 2.60   3 2.60   4 2.60   3 2.60   4 2.60   1 2.60
   6  0.500  0.500  0.500-   2 2.60   3 2.60   4 2.60   4 2.60   3 2.60   2 2.60
   7  0.000  0.000  0.500-   1 2.60   2 2.60   3 2.60   1 2.60   2 2.60   3 2.60
   8  0.000  0.500  0.000-   1 2.60   2 2.60   4 2.60   2 2.60   1 2.60   4 2.60
 
  LATTYP: Found a simple cubic cell.
 ALAT       =     5.1981854908
  
  Lattice vectors:
  
 A1 = (   5.1981854908,   0.0000000000,   0.0000000000)
 A2 = (   0.0000000000,   5.1981854908,   0.0000000000)
 A3 = (   0.0000000000,   0.0000000000,   5.1981854908)


Analysis of symmetry for initial positions (statically):
=====================================================================
 Subroutine PRICEL returns following result:
 
  LATTYP: Found a face centered cubic cell.
 ALAT       =     5.1981854908
  
  Lattice vectors:
  
 A1 = (   2.5990927454,   2.5990927454,   0.0000000000)
 A2 = (   2.5990927454,   0.0000000000,  -2.5990927454)
 A3 = (   0.0000000000,   2.5990927454,  -2.5990927454)
 
   4 primitive cells build up your supercell.
 

 Routine SETGRP: Setting up the symmetry group for a 
 simple cubic supercell.


 Subroutine GETGRP returns: Found 48 space group operations
 (whereof 48 operations were pure point group operations)
 out of a pool of 48 trial point group operations.


The static configuration has the point symmetry O_h .


Analysis of symmetry for dynamics (positions and initial velocities):
=====================================================================
 Subroutine PRICEL returns following result:
 
  LATTYP: Found a face centered cubic cell.
 ALAT       =     5.1981854908
  
  Lattice vectors:
  
 A1 = (   2.5990927454,   2.5990927454,   0.0000000000)
 A2 = (   2.5990927454,   0.0000000000,  -2.5990927454)
 A3 = (   0.0000000000,   2.5990927454,  -2.5990927454)
 
   4 primitive cells build up your supercell.
 

 Routine SETGRP: Setting up the symmetry group for a 
 simple cubic supercell.


 Subroutine GETGRP returns: Found 48 space group operations
 (whereof 48 operations were pure point group operations)
 out of a pool of 48 trial point group operations.


The dynamic configuration has the point symmetry O_h .
 
 
 KPOINTS: Automatic mesh                          

Automatic generation of k-mesh.
Space group operators:
 irot       det(A)        alpha          n_x          n_y          n_z        tau_x        tau_y        tau_z
    1     1.000000     0.000000     1.000000     0.000000     0.000000     0.000000     0.000000     0.000000
    2    -1.000000     0.000000     1.000000     0.000000     0.000000     0.000000     0.000000     0.000000
    3     1.000000   120.000000    -0.577350    -0.577350    -0.577350     0.000000     0.000000     0.000000
    4    -1.000000   120.000000    -0.577350    -0.577350    -0.577350     0.000000     0.000000     0.000000
    5     1.000000   120.000000     0.577350     0.577350     0.577350     0.000000     0.000000     0.000000
    6    -1.000000   120.000000     0.577350     0.577350     0.577350     0.000000     0.000000     0.000000
    7     1.000000    90.000000     0.000000     0.000000    -1.000000     0.000000     0.000000     0.000000
    8    -1.000000    90.000000     0.000000     0.000000    -1.000000     0.000000     0.000000     0.000000
    9     1.000000   180.000000     0.000000     0.707107     0.707107     0.000000     0.000000     0.000000
   10    -1.000000   180.000000     0.000000     0.707107     0.707107     0.000000     0.000000     0.000000
   11     1.000000    90.000000     0.000000     1.000000     0.000000     0.000000     0.000000     0.000000
   12    -1.000000    90.000000     0.000000     1.000000     0.000000     0.000000     0.000000     0.000000
   13     1.000000   180.000000     0.000000     0.000000     1.000000     0.000000     0.000000     0.000000
   14    -1.000000   180.000000     0.000000     0.000000     1.000000     0.000000     0.000000     0.000000
   15     1.000000   120.000000    -0.577350     0.577350     0.577350     0.000000     0.000000     0.000000
   16    -1.000000   120.000000    -0.577350     0.577350     0.577350     0.000000     0.000000     0.000000
   17     1.000000   120.000000    -0.577350     0.577350    -0.577350     0.000000     0.000000     0.000000
   18    -1.000000   120.000000    -0.577350     0.577350    -0.577350     0.000000     0.000000     0.000000
   19     1.000000    90.000000     0.000000     0.000000     1.000000     0.000000     0.000000     0.000000
   20    -1.000000    90.000000     0.000000     0.000000     1.000000     0.000000     0.000000     0.000000
   21     1.000000    90.000000    -1.000000     0.000000     0.000000     0.000000     0.000000     0.000000
   22    -1.000000    90.000000    -1.000000     0.000000     0.000000     0.000000     0.000000     0.000000
   23     1.000000   180.000000     0.707107     0.000000     0.707107     0.000000     0.000000     0.000000
   24    -1.000000   180.000000     0.707107     0.000000     0.707107     0.000000     0.000000     0.000000
   25     1.000000   120.000000     0.577350    -0.577350     0.577350     0.000000     0.000000     0.000000
   26    -1.000000   120.000000     0.577350    -0.577350     0.577350     0.000000     0.000000     0.000000
   27     1.000000   120.000000    -0.577350    -0.577350     0.577350     0.000000     0.000000     0.000000
   28    -1.000000   120.000000    -0.577350    -0.577350     0.577350     0.000000     0.000000     0.000000
   29     1.000000   180.000000     1.000000     0.000000     0.000000     0.000000     0.000000     0.000000
   30    -1.000000   180.000000     1.000000     0.000000     0.000000     0.000000     0.000000     0.000000
   31     1.000000    90.000000     0.000000    -1.000000     0.000000     0.000000     0.000000     0.000000
   32    -1.000000    90.000000     0.000000    -1.000000     0.000000     0.000000     0.000000     0.000000
   33     1.000000   180.000000     0.707107     0.707107     0.000000     0.000000     0.000000     0.000000
   34    -1.000000   180.000000     0.707107     0.707107     0.000000     0.000000     0.000000     0.000000
   35     1.000000    90.000000     1.000000     0.000000     0.000000     0.000000     0.000000     0.000000
   36    -1.000000    90.000000     1.000000     0.000000     0.000000     0.000000     0.000000     0.000000
   37     1.000000   120.000000     0.577350    -0.577350    -0.577350     0.000000     0.000000     0.000000
   38    -1.000000   120.000000     0.577350    -0.577350    -0.577350     0.000000     0.000000     0.000000
   39     1.000000   180.000000     0.000000     1.000000     0.000000     0.000000     0.000000     0.000000
   40    -1.000000   180.000000     0.000000     1.000000     0.000000     0.000000     0.000000     0.000000
   41     1.000000   120.000000     0.577350     0.577350    -0.577350     0.000000     0.000000     0.000000
   42    -1.000000   120.000000     0.577350     0.577350    -0.577350     0.000000     0.000000     0.000000
   43     1.000000   180.000000     0.000000    -0.707107     0.707107     0.000000     0.000000     0.000000
   44    -1.000000   180.000000     0.000000    -0.707107     0.707107     0.000000     0.000000     0.000000
   45     1.000000   180.000000     0.707107    -0.707107     0.000000     0.000000     0.000000     0.000000
   46    -1.000000   180.000000     0.707107    -0.707107     0.000000     0.000000     0.000000     0.000000
   47     1.000000   180.000000     0.707107     0.000000    -0.707107     0.000000     0.000000     0.000000
   48    -1.000000   180.000000     0.707107     0.000000    -0.707107     0.000000     0.000000     0.000000
 
 Subroutine IBZKPT returns following result:
 ===========================================
 
 Found     10 irreducible k-points:
 
 Following reciprocal coordinates:
            Coordinates               Weight
  0.000000  0.000000  0.000000      1.000000
  0.250000  0.000000  0.000000      6.000000
  0.500000  0.000000  0.000000      3.000000
  0.250000  0.250000  0.000000     12.000000
  0.500000  0.250000  0.000000     12.000000
  0.500000  0.500000  0.000000      3.000000
  0.250000  0.250000  0.250000      8.000000
  0.500000  0.250000  0.250000     12.000000
  0.500000  0.500000  0.250000      6.000000
  0.500000  0.500000  0.500000      1.000000
 
 Following cartesian coordinates:
            Coordinates               Weight
  0.000000  0.000000  0.000000      1.000000
  0.048094  0.000000  0.000000      6.000000
  0.096187  0.000000  0.000000      3.000000
  0.048094  0.048094  0.000000     12.000000
  0.096187  0.048094  0.000000     12.000000
  0.096187  0.096187  0.000000      3.000000
  0.048094  0.048094  0.048094      8.000000
  0.096187  0.048094  0.048094     12.000000
  0.096187  0.096187  0.048094      6.000000
  0.096187  0.096187  0.096187      1.000000
 


--------------------------------------------------------------------------------------------------------




 Dimension of arrays:
   k-points           NKPTS =     10   k-points in BZ     NKDIM =     10   number of bands    NBANDS=     36
   number of dos      NEDOS =    301   number of ions     NIONS =      8
   non local maximal  LDIM  =      5   non local SUM 2l+1 LMDIM =     13
   total plane-waves  NPLWV =  64000
   max r-space proj   IRMAX =      1   max aug-charges    IRDMAX= 115026
   dimension x,y,z NGX =    40 NGY =   40 NGZ =   40
   dimension x,y,z NGXF=    80 NGYF=   80 NGZF=   80
   support grid    NGXF=   160 NGYF=  160 NGZF=  160
   ions per type =               4   4
 NGX,Y,Z   is equivalent  to a cutoff of  12.79, 12.79, 12.79 a.u.
 NGXF,Y,Z  is equivalent  to a cutoff of  25.59, 25.59, 25.59 a.u.


 I would recommend the setting:
   dimension x,y,z NGX =    39 NGY =   39 NGZ =   39
 SYSTEM =  unknown system                          
 POSCAR =   Mg S                                   

 Startparameter for this run:
   NWRITE =      2    write-flag & timer
   PREC   = accura    normal or accurate (medium, high low for compatibility)
   ISTART =      0    job   : 0-new  1-cont  2-samecut
   ICHARG =      2    charge: 1-file 2-atom 10-const
   ISPIN  =      1    spin polarized calculation?
   LNONCOLLINEAR =      F non collinear calculations
   LSORBIT =      F    spin-orbit coupling
   INIWAV =      1    electr: 0-lowe 1-rand  2-diag
   LASPH  =      F    aspherical Exc in radial PAW
   METAGGA=      F    non-selfconsistent MetaGGA calc.

 Electronic Relaxation 1
   ENCUT  =  525.1 eV  38.59 Ry    6.21 a.u.   9.71  9.71  9.71*2*pi/ulx,y,z
   ENINI  =  525.1     initial cutoff
   ENAUG  =  758.8 eV  augmentation charge cutoff
   NELM   =     60;   NELMIN=  5; NELMDL= -5     # of ELM steps 
   EDIFF  = 0.1E-07   stopping-criterion for ELM
   LREAL  =      F    real-space projection
   NLSPLINE    = F    spline interpolate recip. space projectors
   LCOMPAT=      F    compatible to vasp.4.4
   GGA_COMPAT  = T    GGA compatible to vasp.4.4-vasp.4.6
   LMAXPAW     = -100 max onsite density
   LMAXMIX     =    2 max onsite mixed and CHGCAR
   VOSKOWN=      0    Vosko Wilk Nusair interpolation
   ROPT   =    0.00000   0.00000
 Ionic relaxation
   EDIFFG = -.1E-07   stopping-criterion for IOM
   NSW    =     20    number of steps for IOM
   NBLOCK =      1;   KBLOCK =     20    inner block; outer block 
   IBRION =      2    ionic relax: 0-MD 1-quasi-New 2-CG
   NFREE  =      1    steps in history (QN), initial steepest desc. (CG)
   ISIF   =      4    stress and relaxation
   IWAVPR =     11    prediction:  0-non 1-charg 2-wave 3-comb
   ISYM   =      2    0-nonsym 1-usesym 2-fastsym
   LCORR  =      T    Harris-Foulkes like correction to forces

   POTIM  = 0.5000    time-step for ionic-motion
   TEIN   =    0.0    initial temperature
   TEBEG  =    0.0;   TEEND  =   0.0 temperature during run
   SMASS  =  -3.00    Nose mass-parameter (am)
   estimated Nose-frequenzy (Omega)   =  0.10E-29 period in steps =****** mass=  -0.618E-27a.u.
   SCALEE = 1.0000    scale energy and forces
   NPACO  =    256;   APACO  = 16.0  distance and # of slots for P.C.
   PSTRESS=    0.0 pullay stress

  Mass of Ions in am
   POMASS =  24.30 32.07
  Ionic Valenz
   ZVAL   =   8.00  6.00
  Atomic Wigner-Seitz radii
   RWIGS  =  -1.00 -1.00
  virtual crystal weights 
   VCA    =   1.00  1.00
   NELECT =      56.0000    total number of electrons
   NUPDOWN=      -1.0000    fix difference up-down

 DOS related values:
   EMIN   =  10.00;   EMAX   =-10.00  energy-range for DOS
   EFERMI =   0.00
   ISMEAR =     0;   SIGMA  =   0.01  broadening in eV -4-tet -1-fermi 0-gaus

 Electronic relaxation 2 (details)
   IALGO  =     38    algorithm
   LDIAG  =      T    sub-space diagonalisation (order eigenvalues)
   LSUBROT=      F    optimize rotation matrix (better conditioning)
   TURBO    =      0    0=normal 1=particle mesh
   IRESTART =      0    0=no restart 2=restart with 2 vectors
   NREBOOT  =      0    no. of reboots
   NMIN     =      0    reboot dimension
   EREF     =   0.00    reference energy to select bands
   IMIX   =      4    mixing-type and parameters
     AMIX     =   0.40;   BMIX     =  1.00
     AMIX_MAG =   1.60;   BMIX_MAG =  1.00
     AMIN     =   0.10
     WC   =   100.;   INIMIX=   1;  MIXPRE=   1;  MAXMIX= -45

 Intra band minimization:
   WEIMIN = 0.0010     energy-eigenvalue tresh-hold
   EBREAK =  0.69E-11  absolut break condition
   DEPER  =   0.30     relativ break condition  

   TIME   =   0.40     timestep for ELM

  volume/ion in A,a.u.               =      17.56       118.48
  Fermi-wavevector in a.u.,A,eV,Ry     =   1.204904  2.276938 19.752848  1.451793
  Thomas-Fermi vector in A             =   2.340616
 
 Write flags
   LWAVE  =      F    write WAVECAR
   LCHARG =      F    write CHGCAR
   LVTOT  =      F    write LOCPOT, total local potential
   LVHAR  =      F    write LOCPOT, Hartree potential only
   LELF   =      F    write electronic localiz. function (ELF)
   LORBIT =      0    0 simple, 1 ext, 2 COOP (PROOUT)


 Dipole corrections
   LMONO  =      F    monopole corrections only (constant potential shift)
   LDIPOL =      F    correct potential (dipole corrections)
   IDIPOL =      0    1-x, 2-y, 3-z, 4-all directions 
   EPSILON=  1.0000000 bulk dielectric constant

 Exchange correlation treatment:
   GGA     =    PS    GGA type
   LEXCH   =    14    internal setting for exchange type
   VOSKOWN=      0    Vosko Wilk Nusair interpolation
   LHFCALC =     F    Hartree Fock is set to
   LHFONE  =     F    Hartree Fock one center treatment
   AEXX    =    0.0000 exact exchange contribution

 Linear response parameters
   LEPSILON=     F    determine dielectric tensor
   LRPA    =     F    only Hartree local field effects (RPA)
   LNABLA  =     F    use nabla operator in PAW spheres
   LVEL    =     F    velocity operator in full k-point grid
   LINTERFAST=   F  fast interpolation
   KINTER  =     0    interpolate to denser k-point grid
   CSHIFT  =0.1000    complex shift for real part using Kramers Kronig
   OMEGAMAX=  -1.0    maximum frequency
   DEG_THRESHOLD= 0.2000000E-02 threshold for treating states as degnerate
   RTIME   =    0.100 relaxation time in fs

 Orbital magnetization related:
   ORBITALMAG=     F  switch on orbital magnetization
   LCHIMAG   =     F  perturbation theory with respect to B field
   DQ        =  0.001000  dq finite difference perturbation B field



--------------------------------------------------------------------------------------------------------


 conjugate gradient relaxation of ions
 charge density and potential will be updated during run
 non-spin polarized calculation
 Variant of blocked Davidson
 Davidson routine will perform the subspace rotation
 perform sub-space diagonalisation
    after iterative eigenvector-optimisation
 modified Broyden-mixing scheme, WC =      100.0
 initial mixing is a Kerker type mixing with AMIX =  0.4000 and BMIX =      1.0000
 Hartree-type preconditioning will be used
 using additional bands            8
 reciprocal scheme for non local part
 use partial core corrections
 calculate Harris-corrections to forces 
   (improved forces if not selfconsistent)
 use gradient corrections 
 use of overlap-Matrix (Vanderbilt PP)
 Gauss-broadening in eV      SIGMA  =   0.01


--------------------------------------------------------------------------------------------------------


  energy-cutoff  :      525.11
  volume of cell :      140.46
      direct lattice vectors                 reciprocal lattice vectors
     5.198185491  0.000000000  0.000000000     0.192374820  0.000000000  0.000000000
     0.000000000  5.198185491  0.000000000     0.000000000  0.192374820  0.000000000
     0.000000000  0.000000000  5.198185491     0.000000000  0.000000000  0.192374820

  length of vectors
     5.198185491  5.198185491  5.198185491     0.192374820  0.192374820  0.192374820


 
 k-points in units of 2pi/SCALE and weight: Automatic mesh                          
   0.00000000  0.00000000  0.00000000       0.016
   0.04809371  0.00000000  0.00000000       0.094
   0.09618741  0.00000000  0.00000000       0.047
   0.04809371  0.04809371  0.00000000       0.188
   0.09618741  0.04809371  0.00000000       0.188
   0.09618741  0.09618741  0.00000000       0.047
   0.04809371  0.04809371  0.04809371       0.125
   0.09618741  0.04809371  0.04809371       0.188
   0.09618741  0.09618741  0.04809371       0.094
   0.09618741  0.09618741  0.09618741       0.016
 
 k-points in reciprocal lattice and weights: Automatic mesh                          
   0.00000000  0.00000000  0.00000000       0.016
   0.25000000  0.00000000  0.00000000       0.094
   0.50000000  0.00000000  0.00000000       0.047
   0.25000000  0.25000000  0.00000000       0.188
   0.50000000  0.25000000  0.00000000       0.188
   0.50000000  0.50000000  0.00000000       0.047
   0.25000000  0.25000000  0.25000000       0.125
   0.50000000  0.25000000  0.25000000       0.188
   0.50000000  0.50000000  0.25000000       0.094
   0.50000000  0.50000000  0.50000000       0.016
 
 position of ions in fractional coordinates (direct lattice) 
   0.00000000  0.00000000  0.00000000
   0.00000000  0.50000000  0.50000000
   0.50000000  0.00000000  0.50000000
   0.50000000  0.50000000  0.00000000
   0.50000000  0.00000000  0.00000000
   0.50000000  0.50000000  0.50000000
   0.00000000  0.00000000  0.50000000
   0.00000000  0.50000000  0.00000000
 
 position of ions in cartesian coordinates  (Angst):
   0.00000000  0.00000000  0.00000000
   0.00000000  2.59909275  2.59909275
   2.59909275  0.00000000  2.59909275
   2.59909275  2.59909275  0.00000000
   2.59909275  0.00000000  0.00000000
   2.59909275  2.59909275  2.59909275
   0.00000000  0.00000000  2.59909275
   0.00000000  2.59909275  0.00000000
 


--------------------------------------------------------------------------------------------------------


 k-point  1 :   0.0000 0.0000 0.0000  plane waves:    3887
 k-point  2 :   0.2500 0.0000 0.0000  plane waves:    3851
 k-point  3 :   0.5000 0.0000 0.0000  plane waves:    3868
 k-point  4 :   0.2500 0.2500 0.0000  plane waves:    3824
 k-point  5 :   0.5000 0.2500 0.0000  plane waves:    3846
 k-point  6 :   0.5000 0.5000 0.0000  plane waves:    3836
 k-point  7 :   0.2500 0.2500 0.2500  plane waves:    3836
 k-point  8 :   0.5000 0.2500 0.2500  plane waves:    3832
 k-point  9 :   0.5000 0.5000 0.2500  plane waves:    3832
 k-point 10 :   0.5000 0.5000 0.5000  plane waves:    3840

 maximum and minimum number of plane-waves per node :       790      754

 maximum number of plane-waves:      3887
 maximum index in each direction: 
   IXMAX=    9   IYMAX=    9   IZMAX=    9
   IXMIN=  -10   IYMIN=  -10   IZMIN=  -10

 NGX is ok and might be reduce to  40
 NGY is ok and might be reduce to  40
 NGZ is ok and might be reduce to  40

 parallel 3D FFT for wavefunctions:
    minimum data exchange during FFTs selected (reduces bandwidth)
 parallel 3D FFT for charge:
    minimum data exchange during FFTs selected (reduces bandwidth)


 total amount of memory used by VASP on root node    39070. kBytes
========================================================================

   base      :      30000. kBytes
   nonl-proj :       1748. kBytes
   fftplans  :       4155. kBytes
   grid      :       1976. kBytes
   one-center:         16. kBytes
   wavefun   :       1175. kBytes
 
     INWAV:  cpu time    0.00: real time    0.00
 Broyden mixing: mesh for mixing (old mesh)
   NGX = 19   NGY = 19   NGZ = 19
  (NGX  = 80   NGY  = 80   NGZ  = 80)
  gives a total of   6859 points

 initial charge density was supplied:
 charge density of overlapping atoms calculated
 number of electron      56.0000000 magnetization 
 keeping initial charge density in first step


--------------------------------------------------------------------------------------------------------


 Maximum index for augmentation-charges         5899 (set IRDMAX)


--------------------------------------------------------------------------------------------------------


 First call to EWALD:  gamma=   0.341
 Maximum number of real-space cells 3x 3x 3
 Maximum number of reciprocal cells 3x 3x 3

 FEWALD executed in parallel
    FEWALD:  cpu time    0.00: real time    0.00


----------------------------------------- Iteration    1(   1)  ---------------------------------------


    POTLOK:  cpu time    0.02: real time    0.02
    SETDIJ:  cpu time    0.03: real time    0.03
     EDDAV:  cpu time    0.29: real time    0.29
       DOS:  cpu time    0.00: real time    0.00
    --------------------------------------------
      LOOP:  cpu time    0.34: real time    0.35

 eigenvalue-minimisations  :   888
 total energy-change (2. order) : 0.4598964E+03  (-0.3467113E+04)
 number of electron      56.0000000 magnetization 
 augmentation part       56.0000000 magnetization 

 Free energy of the ion-electron system (eV)
  ---------------------------------------------------
  alpha Z        PSCENC =       151.16398193
  Ewald energy   TEWEN  =     -3119.75347523
  -Hartree energ DENC   =     -1168.79025557
  -exchange      EXHF   =         0.00000000
  -V(xc)+E(xc)   XCENC  =       159.23734617
  PAW double counting   =      3462.71711756    -3919.80126840
  entropy T*S    EENTRO =        -0.00096414
  eigenvalues    EBANDS =      -426.58151710
  atomic energy  EATOM  =      5321.70543053
  ---------------------------------------------------
  free energy    TOTEN  =       459.89639574 eV

  energy without entropy =      459.89735988  energy(sigma->0) =      459.89687781


--------------------------------------------------------------------------------------------------------




----------------------------------------- Iteration    1(   2)  ---------------------------------------


     EDDAV:  cpu time    0.26: real time    0.26
       DOS:  cpu time    0.00: real time    0.00
    --------------------------------------------
      LOOP:  cpu time    0.26: real time    0.26

 eigenvalue-minimisations  :   848
 total energy-change (2. order) :-0.4615763E+03  (-0.4474179E+03)
 number of electron      56.0000000 magnetization 
 augmentation part       56.0000000 magnetization 

 Free energy of the ion-electron system (eV)
  ---------------------------------------------------
  alpha Z        PSCENC =       151.16398193
  Ewald energy   TEWEN  =     -3119.75347523
  -Hartree energ DENC   =     -1168.79025557
  -exchange      EXHF   =         0.00000000
  -V(xc)+E(xc)   XCENC  =       159.23734617
  PAW double counting   =      3462.71711756    -3919.80126840
  entropy T*S    EENTRO =         0.00000000
  eigenvalues    EBANDS =      -888.15874494
  atomic energy  EATOM  =      5321.70543053
  ---------------------------------------------------
  free energy    TOTEN  =        -1.67986796 eV

  energy without entropy =       -1.67986796  energy(sigma->0) =       -1.67986796


--------------------------------------------------------------------------------------------------------




----------------------------------------- Iteration    1(   3)  ---------------------------------------


     EDDAV:  cpu time    0.27: real time    0.27
       DOS:  cpu time    0.00: real time    0.00
    --------------------------------------------
      LOOP:  cpu time    0.27: real time    0.27

 eigenvalue-minimisations  :   868
 total energy-change (2. order) :-0.3493974E+02  (-0.3469324E+02)
 number of electron      56.0000000 magnetization 
 augmentation part       56.0000000 magnetization 

 Free energy of the ion-electron system (eV)
  ---------------------------------------------------
  alpha Z        PSCENC =       151.16398193
  Ewald energy   TEWEN  =     -3119.75347523
  -Hartree energ DENC   =     -1168.79025557
  -exchange      EXHF   =         0.00000000
  -V(xc)+E(xc)   XCENC  =       159.23734617
  PAW double counting   =      3462.71711756    -3919.80126840
  entropy T*S    EENTRO =         0.00000000
  eigenvalues    EBANDS =      -923.09848946
  atomic energy  EATOM  =      5321.70543053
  ---------------------------------------------------
  free energy    TOTEN  =       -36.61961247 eV

  energy without entropy =      -36.61961247  energy(sigma->0) =      -36.61961247


--------------------------------------------------------------------------------------------------------




----------------------------------------- Iteration    1(   4)  ---------------------------------------


     EDDAV:  cpu time    0.27: real time    0.27
       DOS:  cpu time    0.00: real time    0.00
    --------------------------------------------
      LOOP:  cpu time    0.27: real time    0.27

 eigenvalue-minimisations  :   868
 total energy-change (2. order) :-0.1075028E+01  (-0.1072941E+01)
 number of electron      56.0000000 magnetization 
 augmentation part       56.0000000 magnetization 

 Free energy of the ion-electron system (eV)
  ---------------------------------------------------
  alpha Z        PSCENC =       151.16398193
  Ewald energy   TEWEN  =     -3119.75347523
  -Hartree energ DENC   =     -1168.79025557
  -exchange      EXHF   =         0.00000000
  -V(xc)+E(xc)   XCENC  =       159.23734617
  PAW double counting   =      3462.71711756    -3919.80126840
  entropy T*S    EENTRO =         0.00000000
  eigenvalues    EBANDS =      -924.17351779
  atomic energy  EATOM  =      5321.70543053
  ---------------------------------------------------
  free energy    TOTEN  =       -37.69464081 eV

  energy without entropy =      -37.69464081  energy(sigma->0) =      -37.69464081


--------------------------------------------------------------------------------------------------------




----------------------------------------- Iteration    1(   5)  ---------------------------------------


     EDDAV:  cpu time    0.27: real time    0.27
       DOS:  cpu time    0.00: real time    0.00
    CHARGE:  cpu time    0.06: real time    0.06
    MIXING:  cpu time    0.00: real time    0.00
    --------------------------------------------
      LOOP:  cpu time    0.33: real time    0.33

 eigenvalue-minimisations  :   892
 total energy-change (2. order) :-0.2675674E-01  (-0.2674976E-01)
 number of electron      56.0000001 magnetization 
 augmentation part       13.1787926 magnetization 

 Broyden mixing:
  rms(total) = 0.84501E+00    rms(broyden)= 0.84495E+00
  rms(prec ) = 0.14172E+01
  weight for this iteration     100.00

 Free energy of the ion-electron system (eV)
  ---------------------------------------------------
  alpha Z        PSCENC =       151.16398193
  Ewald energy   TEWEN  =     -3119.75347523
  -Hartree energ DENC   =     -1168.79025557
  -exchange      EXHF   =         0.00000000
  -V(xc)+E(xc)   XCENC  =       159.23734617
  PAW double counting   =      3462.71711756    -3919.80126840
  entropy T*S    EENTRO =         0.00000000
  eigenvalues    EBANDS =      -924.20027454
  atomic energy  EATOM  =      5321.70543053
  ---------------------------------------------------
  free energy    TOTEN  =       -37.72139755 eV

  energy without entropy =      -37.72139755  energy(sigma->0) =      -37.72139755


--------------------------------------------------------------------------------------------------------




----------------------------------------- Iteration    1(   6)  ---------------------------------------


    POTLOK:  cpu time    0.02: real time    0.02
    SETDIJ:  cpu time    0.03: real time    0.03
     EDDAV:  cpu time    0.24: real time    0.24
       DOS:  cpu time    0.00: real time    0.00
    CHARGE:  cpu time    0.06: real time    0.06
    MIXING:  cpu time    0.00: real time    0.00
    --------------------------------------------
      LOOP:  cpu time    0.35: real time    0.35

 eigenvalue-minimisations  :   760
 total energy-change (2. order) : 0.1327713E+01  (-0.2639822E+00)
 number of electron      56.0000001 magnetization 
 augmentation part       13.3386987 magnetization 

 Broyden mixing:
  rms(total) = 0.62477E+00    rms(broyden)= 0.62477E+00
  rms(prec ) = 0.77230E+00
  weight for this iteration     100.00

 eigenvalues of (default mixing * dielectric matrix)
  average eigenvalue GAMMA=   1.9811
  1.9811

 Free energy of the ion-electron system (eV)
  ---------------------------------------------------
  alpha Z        PSCENC =       151.16398193
  Ewald energy   TEWEN  =     -3119.75347523
  -Hartree energ DENC   =     -1167.27589771
  -exchange      EXHF   =         0.00000000
  -V(xc)+E(xc)   XCENC  =       160.33702359
  PAW double counting   =      3730.02771158    -4183.45761312
  entropy T*S    EENTRO =         0.00000000
  eigenvalues    EBANDS =      -929.14084599
  atomic energy  EATOM  =      5321.70543053
  ---------------------------------------------------
  free energy    TOTEN  =       -36.39368441 eV

  energy without entropy =      -36.39368441  energy(sigma->0) =      -36.39368441


--------------------------------------------------------------------------------------------------------




----------------------------------------- Iteration    1(   7)  ---------------------------------------


    POTLOK:  cpu time    0.01: real time    0.02
    SETDIJ:  cpu time    0.03: real time    0.03
     EDDAV:  cpu time    0.28: real time    0.28
       DOS:  cpu time    0.00: real time    0.00
    CHARGE:  cpu time    0.06: real time    0.06
    MIXING:  cpu time    0.00: real time    0.00
    --------------------------------------------
      LOOP:  cpu time    0.39: real time    0.39

 eigenvalue-minimisations  :   920
 total energy-change (2. order) : 0.1592950E+00  (-0.7568382E-01)
 number of electron      56.0000001 magnetization 
 augmentation part       13.4250026 magnetization 

 Broyden mixing:
  rms(total) = 0.35766E+00    rms(broyden)= 0.35766E+00
  rms(prec ) = 0.38497E+00
  weight for this iteration     100.00

 eigenvalues of (default mixing * dielectric matrix)
  average eigenvalue GAMMA=   2.2494
  1.4409  3.0578

 Free energy of the ion-electron system (eV)
  ---------------------------------------------------
  alpha Z        PSCENC =       151.16398193
  Ewald energy   TEWEN  =     -3119.75347523
  -Hartree energ DENC   =     -1163.96217354
  -exchange      EXHF   =         0.00000000
  -V(xc)+E(xc)   XCENC  =       161.07927327
  PAW double counting   =      4210.44290149    -4662.51518453
  entropy T*S    EENTRO =         0.00000000
  eigenvalues    EBANDS =      -934.39514329
  atomic energy  EATOM  =      5321.70543053
  ---------------------------------------------------
  free energy    TOTEN  =       -36.23438938 eV

  energy without entropy =      -36.23438938  energy(sigma->0) =      -36.23438938


--------------------------------------------------------------------------------------------------------




----------------------------------------- Iteration    1(   8)  ---------------------------------------


    POTLOK:  cpu time    0.01: real time    0.02
    SETDIJ:  cpu time    0.03: real time    0.03
     EDDAV:  cpu time    0.24: real time    0.24
       DOS:  cpu time    0.00: real time    0.00
    CHARGE:  cpu time    0.06: real time    0.06
    MIXING:  cpu time    0.00: real time    0.00
    --------------------------------------------
      LOOP:  cpu time    0.35: real time    0.35

 eigenvalue-minimisations  :   780
 total energy-change (2. order) : 0.6922436E-02  (-0.4953035E-02)
 number of electron      56.0000001 magnetization 
 augmentation part       13.4071477 magnetization 

 Broyden mixing:
  rms(total) = 0.10575E+00    rms(broyden)= 0.10575E+00
  rms(prec ) = 0.10946E+00
  weight for this iteration     100.00

 eigenvalues of (default mixing * dielectric matrix)
  average eigenvalue GAMMA=   1.5891
  2.4889  0.8836  1.3947

 Free energy of the ion-electron system (eV)
  ---------------------------------------------------
  alpha Z        PSCENC =       151.16398193
  Ewald energy   TEWEN  =     -3119.75347523
  -Hartree energ DENC   =     -1159.29495788
  -exchange      EXHF   =         0.00000000
  -V(xc)+E(xc)   XCENC  =       161.28328078
  PAW double counting   =      4808.44618659    -5261.44283299
  entropy T*S    EENTRO =         0.00000000
  eigenvalues    EBANDS =      -938.33508067
  atomic energy  EATOM  =      5321.70543053
  ---------------------------------------------------
  free energy    TOTEN  =       -36.22746694 eV

  energy without entropy =      -36.22746694  energy(sigma->0) =      -36.22746694


--------------------------------------------------------------------------------------------------------




----------------------------------------- Iteration    1(   9)  ---------------------------------------


    POTLOK:  cpu time    0.02: real time    0.02
    SETDIJ:  cpu time    0.03: real time    0.03
     EDDAV:  cpu time    0.27: real time    0.27
       DOS:  cpu time    0.00: real time    0.00
    CHARGE:  cpu time    0.06: real time    0.06
    MIXING:  cpu time    0.00: real time    0.00
    --------------------------------------------
      LOOP:  cpu time    0.38: real time    0.38

 eigenvalue-minimisations  :   876
 total energy-change (2. order) : 0.8472977E-03  (-0.2520667E-03)
 number of electron      56.0000001 magnetization 
 augmentation part       13.4109380 magnetization 

 Broyden mixing:
  rms(total) = 0.29640E-01    rms(broyden)= 0.29640E-01
  rms(prec ) = 0.30746E-01
  weight for this iteration     100.00

 eigenvalues of (default mixing * dielectric matrix)
  average eigenvalue GAMMA=   1.8116
  2.6280  2.1398  1.1370  1.3417

 Free energy of the ion-electron system (eV)
  ---------------------------------------------------
  alpha Z        PSCENC =       151.16398193
  Ewald energy   TEWEN  =     -3119.75347523
  -Hartree energ DENC   =     -1159.87293539
  -exchange      EXHF   =         0.00000000
  -V(xc)+E(xc)   XCENC  =       161.26161749
  PAW double counting   =      4697.00159598    -5149.82638238
  entropy T*S    EENTRO =         0.00000000
  eigenvalues    EBANDS =      -937.90645257
  atomic energy  EATOM  =      5321.70543053
  ---------------------------------------------------
  free energy    TOTEN  =       -36.22661965 eV

  energy without entropy =      -36.22661965  energy(sigma->0) =      -36.22661965


--------------------------------------------------------------------------------------------------------




----------------------------------------- Iteration    1(  10)  ---------------------------------------


    POTLOK:  cpu time    0.01: real time    0.02
    SETDIJ:  cpu time    0.03: real time    0.03
     EDDAV:  cpu time    0.28: real time    0.28
       DOS:  cpu time    0.00: real time    0.00
    CHARGE:  cpu time    0.06: real time    0.06
    MIXING:  cpu time    0.00: real time    0.00
    --------------------------------------------
      LOOP:  cpu time    0.38: real time    0.39

 eigenvalue-minimisations  :   900
 total energy-change (2. order) :-0.2868439E-04  (-0.5892814E-04)
 number of electron      56.0000001 magnetization 
 augmentation part       13.4134114 magnetization 

 Broyden mixing:
  rms(total) = 0.17483E-02    rms(broyden)= 0.17483E-02
  rms(prec ) = 0.32161E-02
  weight for this iteration     100.00

 eigenvalues of (default mixing * dielectric matrix)
  average eigenvalue GAMMA=   1.6912
  2.7168  2.4925  1.3215  1.0503  0.8747

 Free energy of the ion-electron system (eV)
  ---------------------------------------------------
  alpha Z        PSCENC =       151.16398193
  Ewald energy   TEWEN  =     -3119.75347523
  -Hartree energ DENC   =     -1159.63092938
  -exchange      EXHF   =         0.00000000
  -V(xc)+E(xc)   XCENC  =       161.26229876
  PAW double counting   =      4654.30909448    -5107.14724214
  entropy T*S    EENTRO =         0.00000000
  eigenvalues    EBANDS =      -938.13580727
  atomic energy  EATOM  =      5321.70543053
  ---------------------------------------------------
  free energy    TOTEN  =       -36.22664833 eV

  energy without entropy =      -36.22664833  energy(sigma->0) =      -36.22664833


--------------------------------------------------------------------------------------------------------




----------------------------------------- Iteration    1(  11)  ---------------------------------------


    POTLOK:  cpu time    0.01: real time    0.02
    SETDIJ:  cpu time    0.03: real time    0.03
     EDDAV:  cpu time    0.26: real time    0.26
       DOS:  cpu time    0.00: real time    0.00
    CHARGE:  cpu time    0.06: real time    0.06
    MIXING:  cpu time    0.00: real time    0.00
    --------------------------------------------
      LOOP:  cpu time    0.36: real time    0.37

 eigenvalue-minimisations  :   820
 total energy-change (2. order) : 0.4317398E-05  (-0.2938887E-05)
 number of electron      56.0000001 magnetization 
 augmentation part       13.4129982 magnetization 

 Broyden mixing:
  rms(total) = 0.23266E-02    rms(broyden)= 0.23266E-02
  rms(prec ) = 0.24260E-02
  weight for this iteration     100.00

 eigenvalues of (default mixing * dielectric matrix)
  average eigenvalue GAMMA=   1.6582
  2.7324  2.4488  1.4239  0.9918  1.1762  1.1762

 Free energy of the ion-electron system (eV)
  ---------------------------------------------------
  alpha Z        PSCENC =       151.16398193
  Ewald energy   TEWEN  =     -3119.75347523
  -Hartree energ DENC   =     -1159.57882484
  -exchange      EXHF   =         0.00000000
  -V(xc)+E(xc)   XCENC  =       161.25843732
  PAW double counting   =      4648.74565129    -5101.61057925
  entropy T*S    EENTRO =         0.00000000
  eigenvalues    EBANDS =      -938.15726576
  atomic energy  EATOM  =      5321.70543053
  ---------------------------------------------------
  free energy    TOTEN  =       -36.22664401 eV

  energy without entropy =      -36.22664401  energy(sigma->0) =      -36.22664401


--------------------------------------------------------------------------------------------------------




----------------------------------------- Iteration    1(  12)  ---------------------------------------


    POTLOK:  cpu time    0.01: real time    0.02
    SETDIJ:  cpu time    0.03: real time    0.03
     EDDAV:  cpu time    0.27: real time    0.27
       DOS:  cpu time    0.00: real time    0.00
    CHARGE:  cpu time    0.06: real time    0.06
    MIXING:  cpu time    0.00: real time    0.00
    --------------------------------------------
      LOOP:  cpu time    0.38: real time    0.38

 eigenvalue-minimisations  :   872
 total energy-change (2. order) : 0.7653498E-06  (-0.2008167E-06)
 number of electron      56.0000001 magnetization 
 augmentation part       13.4128408 magnetization 

 Broyden mixing:
  rms(total) = 0.28693E-03    rms(broyden)= 0.28693E-03
  rms(prec ) = 0.35321E-03
  weight for this iteration     100.00

 eigenvalues of (default mixing * dielectric matrix)
  average eigenvalue GAMMA=   1.7134
  2.8022  2.5839  2.3386  1.2167  1.2167  0.9659  0.8697

 Free energy of the ion-electron system (eV)
  ---------------------------------------------------
  alpha Z        PSCENC =       151.16398193
  Ewald energy   TEWEN  =     -3119.75347523
  -Hartree energ DENC   =     -1159.58412661
  -exchange      EXHF   =         0.00000000
  -V(xc)+E(xc)   XCENC  =       161.25887617
  PAW double counting   =      4651.28161075    -5104.15108323
  entropy T*S    EENTRO =         0.00000000
  eigenvalues    EBANDS =      -938.14785756
  atomic energy  EATOM  =      5321.70543053
  ---------------------------------------------------
  free energy    TOTEN  =       -36.22664325 eV

  energy without entropy =      -36.22664325  energy(sigma->0) =      -36.22664325


--------------------------------------------------------------------------------------------------------




----------------------------------------- Iteration    1(  13)  ---------------------------------------


    POTLOK:  cpu time    0.01: real time    0.02
    SETDIJ:  cpu time    0.03: real time    0.03
     EDDAV:  cpu time    0.27: real time    0.27
       DOS:  cpu time    0.00: real time    0.00
    CHARGE:  cpu time    0.06: real time    0.06
    MIXING:  cpu time    0.00: real time    0.00
    --------------------------------------------
      LOOP:  cpu time    0.38: real time    0.38

 eigenvalue-minimisations  :   872
 total energy-change (2. order) : 0.6131995E-07  (-0.1763439E-07)
 number of electron      56.0000001 magnetization 
 augmentation part       13.4127946 magnetization 

 Broyden mixing:
  rms(total) = 0.13312E-03    rms(broyden)= 0.13312E-03
  rms(prec ) = 0.13545E-03
  weight for this iteration     100.00

 eigenvalues of (default mixing * dielectric matrix)
  average eigenvalue GAMMA=   1.6600
  2.9606  2.6284  2.4215  1.3219  1.0609  1.0609  1.0106  0.8149

 Free energy of the ion-electron system (eV)
  ---------------------------------------------------
  alpha Z        PSCENC =       151.16398193
  Ewald energy   TEWEN  =     -3119.75347523
  -Hartree energ DENC   =     -1159.58761802
  -exchange      EXHF   =         0.00000000
  -V(xc)+E(xc)   XCENC  =       161.25878694
  PAW double counting   =      4651.63068485    -5104.50200645
  entropy T*S    EENTRO =         0.00000000
  eigenvalues    EBANDS =      -938.14242774
  atomic energy  EATOM  =      5321.70543053
  ---------------------------------------------------
  free energy    TOTEN  =       -36.22664319 eV

  energy without entropy =      -36.22664319  energy(sigma->0) =      -36.22664319


--------------------------------------------------------------------------------------------------------




----------------------------------------- Iteration    1(  14)  ---------------------------------------


    POTLOK:  cpu time    0.02: real time    0.02
    SETDIJ:  cpu time    0.03: real time    0.03
     EDDAV:  cpu time    0.25: real time    0.25
       DOS:  cpu time    0.00: real time    0.00
    CHARGE:  cpu time    0.06: real time    0.06
    MIXING:  cpu time    0.00: real time    0.00
    --------------------------------------------
      LOOP:  cpu time    0.36: real time    0.36

 eigenvalue-minimisations  :   772
 total energy-change (2. order) : 0.3174682E-07  (-0.1082857E-08)
 number of electron      56.0000001 magnetization 
 augmentation part       13.4127853 magnetization 

 Broyden mixing:
  rms(total) = 0.16514E-03    rms(broyden)= 0.16514E-03
  rms(prec ) = 0.16863E-03
  weight for this iteration     100.00

 eigenvalues of (default mixing * dielectric matrix)
  average eigenvalue GAMMA=   1.7523
  2.7981  2.7981  2.4597  2.2853  1.2517  1.2517  1.0532  1.0034  0.8696

 Free energy of the ion-electron system (eV)
  ---------------------------------------------------
  alpha Z        PSCENC =       151.16398193
  Ewald energy   TEWEN  =     -3119.75347523
  -Hartree energ DENC   =     -1159.58784866
  -exchange      EXHF   =         0.00000000
  -V(xc)+E(xc)   XCENC  =       161.25876328
  PAW double counting   =      4651.64415412    -5104.51553041
  entropy T*S    EENTRO =         0.00000000
  eigenvalues    EBANDS =      -938.14211871
  atomic energy  EATOM  =      5321.70543053
  ---------------------------------------------------
  free energy    TOTEN  =       -36.22664315 eV

  energy without entropy =      -36.22664315  energy(sigma->0) =      -36.22664315


--------------------------------------------------------------------------------------------------------




----------------------------------------- Iteration    1(  15)  ---------------------------------------


    POTLOK:  cpu time    0.01: real time    0.02
    SETDIJ:  cpu time    0.03: real time    0.03
     EDDAV:  cpu time    0.23: real time    0.23
       DOS:  cpu time    0.00: real time    0.00
    CHARGE:  cpu time    0.06: real time    0.06
    MIXING:  cpu time    0.00: real time    0.00
    --------------------------------------------
      LOOP:  cpu time    0.34: real time    0.34

 eigenvalue-minimisations  :   696
 total energy-change (2. order) :-0.3173864E-07  (-0.6556383E-09)
 number of electron      56.0000001 magnetization 
 augmentation part       13.4127947 magnetization 

 Broyden mixing:
  rms(total) = 0.36927E-04    rms(broyden)= 0.36927E-04
  rms(prec ) = 0.37293E-04
  weight for this iteration     100.00

 eigenvalues of (default mixing * dielectric matrix)
  average eigenvalue GAMMA=   1.6608
  2.8955  2.7199  2.5512  2.1852  1.2377  1.2377  0.9850  0.9397  0.9397  0.9167

 Free energy of the ion-electron system (eV)
  ---------------------------------------------------
  alpha Z        PSCENC =       151.16398193
  Ewald energy   TEWEN  =     -3119.75347523
  -Hartree energ DENC   =     -1159.58868639
  -exchange      EXHF   =         0.00000000
  -V(xc)+E(xc)   XCENC  =       161.25875312
  PAW double counting   =      4651.38824290    -5104.25917191
  entropy T*S    EENTRO =         0.00000000
  eigenvalues    EBANDS =      -938.14171813
  atomic energy  EATOM  =      5321.70543053
  ---------------------------------------------------
  free energy    TOTEN  =       -36.22664319 eV

  energy without entropy =      -36.22664319  energy(sigma->0) =      -36.22664319


--------------------------------------------------------------------------------------------------------




----------------------------------------- Iteration    1(  16)  ---------------------------------------


    POTLOK:  cpu time    0.01: real time    0.02
    SETDIJ:  cpu time    0.03: real time    0.03
     EDDAV:  cpu time    0.17: real time    0.17
       DOS:  cpu time    0.00: real time    0.00
    --------------------------------------------
      LOOP:  cpu time    0.21: real time    0.22

 eigenvalue-minimisations  :   420
 total energy-change (2. order) : 0.6484697E-08  (-0.1123892E-10)
 number of electron      56.0000001 magnetization 
 augmentation part       13.4127947 magnetization 

 Free energy of the ion-electron system (eV)
  ---------------------------------------------------
  alpha Z        PSCENC =       151.16398193
  Ewald energy   TEWEN  =     -3119.75347523
  -Hartree energ DENC   =     -1159.58867195
  -exchange      EXHF   =         0.00000000
  -V(xc)+E(xc)   XCENC  =       161.25876294
  PAW double counting   =      4651.42736728    -5104.29833853
  entropy T*S    EENTRO =         0.00000000
  eigenvalues    EBANDS =      -938.14170016
  atomic energy  EATOM  =      5321.70543053
  ---------------------------------------------------
  free energy    TOTEN  =       -36.22664318 eV

  energy without entropy =      -36.22664318  energy(sigma->0) =      -36.22664318


--------------------------------------------------------------------------------------------------------




 average (electrostatic) potential at core
  the test charge radii are     0.8294  0.9698
  (the norm of the test charge is              1.0000)
       1 -42.6994       2 -42.6994       3 -42.6994       4 -42.6994       5 -86.3848
       6 -86.3848       7 -86.3848       8 -86.3848
 
 
 
 E-fermi :   3.5880     XC(G=0): -10.0271     alpha+bet :-10.4970


 k-point     1 :       0.0000    0.0000    0.0000
  band No.  band energies     occupation 
      1     -37.7504      2.00000
      2     -37.7504      2.00000
      3     -37.7504      2.00000
      4     -37.7468      2.00000
      5     -37.7468      2.00000
      6     -37.7468      2.00000
      7     -37.7468      2.00000
      8     -37.7468      2.00000
      9     -37.7468      2.00000
     10     -37.7438      2.00000
     11     -37.7438      2.00000
     12     -37.7438      2.00000
     13      -9.2029      2.00000
     14      -7.4880      2.00000
     15      -7.4880      2.00000
     16      -7.4880      2.00000
     17      -0.7669      2.00000
     18      -0.7669      2.00000
     19      -0.7669      2.00000
     20       1.7888      2.00000
     21       1.7888      2.00000
     22       1.7888      2.00000
     23       1.7888      2.00000
     24       1.7888      2.00000
     25       1.7888      2.00000
     26       3.5002      2.00000
     27       3.5002      2.00000
     28       3.5002      2.00000
     29       6.2154      0.00000
     30       6.2154      0.00000
     31       6.2154      0.00000
     32       7.1180      0.00000
     33       7.7317      0.00000
     34       7.7317      0.00000
     35       7.7317      0.00000
     36      11.3501      0.00000

 k-point     2 :       0.2500    0.0000    0.0000
  band No.  band energies     occupation 
      1     -37.7498      2.00000
      2     -37.7498      2.00000
      3     -37.7497      2.00000
      4     -37.7473      2.00000
      5     -37.7473      2.00000
      6     -37.7468      2.00000
      7     -37.7468      2.00000
      8     -37.7463      2.00000
      9     -37.7463      2.00000
     10     -37.7448      2.00000
     11     -37.7443      2.00000
     12     -37.7443      2.00000
     13      -8.9974      2.00000
     14      -7.8016      2.00000
     15      -7.4635      2.00000
     16      -7.4635      2.00000
     17      -0.5131      2.00000
     18      -0.5131      2.00000
     19      -0.2970      2.00000
     20       1.2040      2.00000
     21       1.2040      2.00000
     22       1.4071      2.00000
     23       1.4071      2.00000
     24       1.9825      2.00000
     25       1.9825      2.00000
     26       2.4686      2.00000
     27       3.1679      2.00000
     28       3.1679      2.00000
     29       6.8567      0.00000
     30       7.2473      0.00000
     31       7.2473      0.00000
     32       8.0489      0.00000
     33       8.2794      0.00000
     34       8.8514      0.00000
     35       8.8514      0.00000
     36      10.3665      0.00000

 k-point     3 :       0.5000    0.0000    0.0000
  band No.  band energies     occupation 
      1     -37.7485      2.00000
      2     -37.7485      2.00000
      3     -37.7485      2.00000
      4     -37.7485      2.00000
      5     -37.7475      2.00000
      6     -37.7475      2.00000
      7     -37.7467      2.00000
      8     -37.7467      2.00000
      9     -37.7454      2.00000
     10     -37.7454      2.00000
     11     -37.7454      2.00000
     12     -37.7454      2.00000
     13      -8.4503      2.00000
     14      -8.4503      2.00000
     15      -7.4385      2.00000
     16      -7.4385      2.00000
     17       0.2090      2.00000
     18       0.2090      2.00000
     19       0.2090      2.00000
     20       0.2090      2.00000
     21       0.9025      2.00000
     22       0.9025      2.00000
     23       1.0970      2.00000
     24       1.0970      2.00000
     25       2.5111      2.00000
     26       2.5111      2.00000
     27       2.5111      2.00000
     28       2.5111      2.00000
     29       8.4491      0.00000
     30       8.4491      0.00000
     31       8.7261      0.00000
     32       8.7261      0.00000
     33       8.9755      0.00000
     34       8.9755      0.00000
     35      11.3467      0.00000
     36      11.3479      0.00000

 k-point     4 :       0.2500    0.2500    0.0000
  band No.  band energies     occupation 
      1     -37.7494      2.00000
      2     -37.7494      2.00000
      3     -37.7493      2.00000
      4     -37.7482      2.00000
      5     -37.7468      2.00000
      6     -37.7468      2.00000
      7     -37.7463      2.00000
      8     -37.7461      2.00000
      9     -37.7460      2.00000
     10     -37.7460      2.00000
     11     -37.7447      2.00000
     12     -37.7441      2.00000
     13      -8.8050      2.00000
     14      -7.7282      2.00000
     15      -7.7282      2.00000
     16      -7.4855      2.00000
     17      -0.3207      2.00000
     18      -0.3207      2.00000
     19      -0.2627      2.00000
     20       0.2564      2.00000
     21       1.4189      2.00000
     22       1.4189      2.00000
     23       1.5188      2.00000
     24       1.8792      2.00000
     25       1.8792      2.00000
     26       2.1130      2.00000
     27       2.7706      2.00000
     28       3.3898      2.00000
     29       7.3269      0.00000
     30       7.7923      0.00000
     31       7.7923      0.00000
     32       8.7906      0.00000
     33       9.1207      0.00000
     34       9.1207      0.00000
     35      10.1068      0.00000
     36      10.5942      0.00000

 k-point     5 :       0.5000    0.2500    0.0000
  band No.  band energies     occupation 
      1     -37.7491      2.00000
      2     -37.7491      2.00000
      3     -37.7483      2.00000
      4     -37.7483      2.00000
      5     -37.7481      2.00000
      6     -37.7481      2.00000
      7     -37.7458      2.00000
      8     -37.7458      2.00000
      9     -37.7458      2.00000
     10     -37.7458      2.00000
     11     -37.7448      2.00000
     12     -37.7448      2.00000
     13      -8.3018      2.00000
     14      -8.3018      2.00000
     15      -7.5808      2.00000
     16      -7.5808      2.00000
     17      -0.2704      2.00000
     18      -0.2704      2.00000
     19       0.3765      2.00000
     20       0.3765      2.00000
     21       0.4475      2.00000
     22       0.4475      2.00000
     23       2.0124      2.00000
     24       2.0124      2.00000
     25       2.0193      2.00000
     26       2.0193      2.00000
     27       2.8086      2.00000
     28       2.8086      2.00000
     29       8.6888      0.00000
     30       8.6888      0.00000
     31       9.2429      0.00000
     32       9.2429      0.00000
     33       9.8621      0.00000
     34       9.8621      0.00000
     35      10.4938      0.00000
     36      10.5154      0.00000

 k-point     6 :       0.5000    0.5000    0.0000
  band No.  band energies     occupation 
      1     -37.7491      2.00000
      2     -37.7491      2.00000
      3     -37.7491      2.00000
      4     -37.7491      2.00000
      5     -37.7469      2.00000
      6     -37.7469      2.00000
      7     -37.7469      2.00000
      8     -37.7469      2.00000
      9     -37.7449      2.00000
     10     -37.7449      2.00000
     11     -37.7449      2.00000
     12     -37.7449      2.00000
     13      -7.9391      2.00000
     14      -7.9391      2.00000
     15      -7.9391      2.00000
     16      -7.9391      2.00000
     17      -0.2595      2.00000
     18      -0.2595      2.00000
     19      -0.2595      2.00000
     20      -0.2595      2.00000
     21       1.1180      2.00000
     22       1.1180      2.00000
     23       1.1180      2.00000
     24       1.1180      2.00000
     25       2.8551      2.00000
     26       2.8551      2.00000
     27       2.8551      2.00000
     28       2.8551      2.00000
     29       9.0832      0.00000
     30       9.0832      0.00000
     31       9.0832      0.00000
     32       9.0832      0.00000
     33      11.0373      0.00000
     34      11.0378      0.00000
     35      11.0392      0.00000
     36      11.0735      0.00000

 k-point     7 :       0.2500    0.2500    0.2500
  band No.  band energies     occupation 
      1     -37.7498      2.00000
      2     -37.7498      2.00000
      3     -37.7498      2.00000
      4     -37.7476      2.00000
      5     -37.7468      2.00000
      6     -37.7468      2.00000
      7     -37.7468      2.00000
      8     -37.7458      2.00000
      9     -37.7458      2.00000
     10     -37.7458      2.00000
     11     -37.7444      2.00000
     12     -37.7444      2.00000
     13      -8.6287      2.00000
     14      -7.6951      2.00000
     15      -7.6951      2.00000
     16      -7.6951      2.00000
     17      -0.6106      2.00000
     18      -0.6106      2.00000
     19      -0.6106      2.00000
     20       0.6437      2.00000
     21       1.2463      2.00000
     22       1.2463      2.00000
     23       1.2463      2.00000
     24       2.2727      2.00000
     25       2.2727      2.00000
     26       2.2727      2.00000
     27       3.1703      2.00000
     28       3.1703      2.00000
     29       7.8235      0.00000
     30       7.8235      0.00000
     31       7.8235      0.00000
     32       8.3410      0.00000
     33      10.1539      0.00000
     34      10.1539      0.00000
     35      10.1539      0.00000
     36      11.2440      0.00000

 k-point     8 :       0.5000    0.2500    0.2500
  band No.  band energies     occupation 
      1     -37.7501      2.00000
      2     -37.7501      2.00000
      3     -37.7493      2.00000
      4     -37.7493      2.00000
      5     -37.7467      2.00000
      6     -37.7467      2.00000
      7     -37.7456      2.00000
      8     -37.7456      2.00000
      9     -37.7451      2.00000
     10     -37.7451      2.00000
     11     -37.7451      2.00000
     12     -37.7451      2.00000
     13      -8.1792      2.00000
     14      -8.1792      2.00000
     15      -7.6612      2.00000
     16      -7.6612      2.00000
     17      -0.8784      2.00000
     18      -0.8784      2.00000
     19      -0.3149      2.00000
     20      -0.3149      2.00000
     21       1.3165      2.00000
     22       1.3165      2.00000
     23       2.3254      2.00000
     24       2.3254      2.00000
     25       2.5638      2.00000
     26       2.5638      2.00000
     27       2.6920      2.00000
     28       2.6920      2.00000
     29       8.6693      0.00000
     30       8.6693      0.00000
     31       9.0134      0.00000
     32       9.0134      0.00000
     33       9.4953      0.00000
     34       9.4953      0.00000
     35      10.0485      0.00000
     36      10.0485      0.00000

 k-point     9 :       0.5000    0.5000    0.2500
  band No.  band energies     occupation 
      1     -37.7504      2.00000
      2     -37.7504      2.00000
      3     -37.7504      2.00000
      4     -37.7504      2.00000
      5     -37.7457      2.00000
      6     -37.7457      2.00000
      7     -37.7457      2.00000
      8     -37.7457      2.00000
      9     -37.7449      2.00000
     10     -37.7449      2.00000
     11     -37.7449      2.00000
     12     -37.7449      2.00000
     13      -7.8995      2.00000
     14      -7.8995      2.00000
     15      -7.8995      2.00000
     16      -7.8995      2.00000
     17      -0.9791      2.00000
     18      -0.9791      2.00000
     19      -0.9791      2.00000
     20      -0.9791      2.00000
     21       2.1130      2.00000
     22       2.1130      2.00000
     23       2.1130      2.00000
     24       2.1130      2.00000
     25       2.8753      2.00000
     26       2.8753      2.00000
     27       2.8753      2.00000
     28       2.8753      2.00000
     29       8.7189      0.00000
     30       8.7189      0.00000
     31       8.7189      0.00000
     32       8.7189      0.00000
     33       9.9178      0.00000
     34       9.9178      0.00000
     35       9.9178      0.00000
     36       9.9178      0.00000

 k-point    10 :       0.5000    0.5000    0.5000
  band No.  band energies     occupation 
      1     -37.7512      2.00000
      2     -37.7512      2.00000
      3     -37.7512      2.00000
      4     -37.7512      2.00000
      5     -37.7449      2.00000
      6     -37.7449      2.00000
      7     -37.7449      2.00000
      8     -37.7449      2.00000
      9     -37.7449      2.00000
     10     -37.7449      2.00000
     11     -37.7449      2.00000
     12     -37.7449      2.00000
     13      -7.8586      2.00000
     14      -7.8586      2.00000
     15      -7.8586      2.00000
     16      -7.8586      2.00000
     17      -1.4111      2.00000
     18      -1.4111      2.00000
     19      -1.4111      2.00000
     20      -1.4111      2.00000
     21       2.8959      2.00000
     22       2.8959      2.00000
     23       2.8959      2.00000
     24       2.8959      2.00000
     25       2.8959      2.00000
     26       2.8959      2.00000
     27       2.8959      2.00000
     28       2.8959      2.00000
     29       7.9057      0.00000
     30       7.9057      0.00000
     31       7.9057      0.00000
     32       7.9057      0.00000
     33      10.3328      0.00000
     34      10.3328      0.00000
     35      10.3328      0.00000
     36      10.3328      0.00000


--------------------------------------------------------------------------------------------------------


 soft charge-density along one line, spin component           1
         0         1         2         3         4         5         6         7         8         9
 total charge-density along one line
 
 pseudopotential strength for first ion, spin component:           1
-49.235   0.000   0.000   6.008   0.000   0.000   0.000   0.000
  0.000 -49.235   0.000   0.000   6.008   0.000   0.000   0.000
  0.000   0.000 -49.235   0.000   0.000   6.008   0.000   0.000
  6.008   0.000   0.000   4.622   0.000   0.000   0.000   0.000
  0.000   6.008   0.000   0.000   4.622   0.000   0.000   0.000
  0.000   0.000   6.008   0.000   0.000   4.622   0.000   0.000
  0.000   0.000   0.000   0.000   0.000   0.000   2.965 -10.876
  0.000   0.000   0.000   0.000   0.000   0.000 -10.876  45.275
  0.000   0.000   0.000   0.000   0.000   0.000   0.000   0.000
  0.000   0.000   0.000   0.000   0.000   0.000   0.000   0.000
  0.000   0.000   0.000   0.000   0.000   0.000   0.000   0.000
  0.000   0.000   0.000   0.000   0.000   0.000   0.000   0.000
  0.000   0.000   0.000   0.000   0.000   0.000   0.000   0.000
 total augmentation occupancy for first ion, spin component:           1
  2.002   0.000   0.000   0.000   0.000   0.000   0.000   0.000   0.000   0.000   0.000   0.000   0.000
  0.000   2.002   0.000   0.000   0.000   0.000   0.000   0.000   0.000   0.000   0.000   0.000   0.000
  0.000   0.000   2.002   0.000   0.000   0.000   0.000   0.000   0.000   0.000   0.000   0.000   0.000
  0.000   0.000   0.000   0.057   0.000   0.000   0.000   0.000   0.000   0.000   0.000   0.000   0.000
  0.000   0.000   0.000   0.000   0.057   0.000   0.000   0.000   0.000   0.000   0.000   0.000   0.000
  0.000   0.000   0.000   0.000   0.000   0.057   0.000   0.000   0.000   0.000   0.000   0.000   0.000
  0.000   0.000   0.000   0.000   0.000   0.000   0.793   0.011   0.000   0.000   0.000   0.000   0.000
  0.000   0.000   0.000   0.000   0.000   0.000   0.011   0.000   0.000   0.000   0.000   0.000   0.000
  0.000   0.000   0.000   0.000   0.000   0.000   0.000   0.000   0.006   0.000   0.000   0.000   0.000
  0.000   0.000   0.000   0.000   0.000   0.000   0.000   0.000   0.000   0.006   0.000   0.000   0.000
  0.000   0.000   0.000   0.000   0.000   0.000   0.000   0.000   0.000   0.000   0.028   0.000   0.000
  0.000   0.000   0.000   0.000   0.000   0.000   0.000   0.000   0.000   0.000   0.000   0.006   0.000
  0.000   0.000   0.000   0.000   0.000   0.000   0.000   0.000   0.000   0.000   0.000   0.000   0.028


------------------------ aborting loop because EDIFF is reached ----------------------------------------


    CHARGE:  cpu time    0.06: real time    0.06
    FORLOC:  cpu time    0.00: real time    0.00
    FORNL :  cpu time    0.21: real time    0.22
    STRESS:  cpu time    0.64: real time    0.64
    FORCOR:  cpu time    0.02: real time    0.02
    FORHAR:  cpu time    0.01: real time    0.01
    MIXING:  cpu time    0.00: real time    0.00
    OFIELD:  cpu time    0.00: real time    0.00

  FORCE on cell =-STRESS in cart. coord.  units (eV):
  Direction    XX          YY          ZZ          XY          YZ          ZX
  --------------------------------------------------------------------------------------
  Alpha Z   151.16398   151.16398   151.16398
  Ewald   -1039.91941 -1039.91941 -1039.91941     0.00000     0.00000     0.00000
  Hartree   386.52956   386.52956   386.52956     0.00000     0.00000     0.00000
  E(xc)    -264.83500  -264.83500  -264.83500     0.00000     0.00000     0.00000
  Local     -10.06930   -10.06930   -10.06930     0.00000     0.00000     0.00000
  n-local    36.49265    37.72718    36.03729    -1.31947    -1.20639    -0.50069
  augment    32.64158    32.64158    32.64156     0.00000    -0.00001    -0.00001
  Kinetic   699.05712   710.08509   712.05217    -2.82841    -2.78612    -1.11217
  Fock        0.00000     0.00000     0.00000     0.00000     0.00000     0.00000
  -------------------------------------------------------------------------------------
  Total      -0.67143    -0.67143    -0.67143     0.00000     0.00000     0.00000
  in kB      -7.65868    -7.65868    -7.65868     0.00000     0.00000     0.00000
  external pressure =       -7.66 kB  Pullay stress =        0.00 kB


 VOLUME and BASIS-vectors are now :
 -----------------------------------------------------------------------------
  energy-cutoff  :      525.11
  volume of cell :      140.46
      direct lattice vectors                 reciprocal lattice vectors
     5.198185491  0.000000000  0.000000000     0.192374820  0.000000000  0.000000000
     0.000000000  5.198185491  0.000000000     0.000000000  0.192374820  0.000000000
     0.000000000  0.000000000  5.198185491     0.000000000  0.000000000  0.192374820

  length of vectors
     5.198185491  5.198185491  5.198185491     0.192374820  0.192374820  0.192374820


 FORCES acting on ions
    electron-ion (+dipol)            ewald-force                    non-local-force                 convergence-correction
 -----------------------------------------------------------------------------------------------
   -.180E-13 -.220E-13 -.142E-13   -.240E-15 -.735E-14 -.723E-14   -.323E-25 0.323E-26 -.388E-25   -.796E-13 -.804E-13 -.830E-13
   -.181E-13 -.412E-13 -.390E-13   -.111E-15 0.703E-14 0.845E-15   -.323E-26 0.000E+00 0.000E+00   -.721E-13 0.530E-13 0.631E-13
   -.382E-13 -.213E-13 -.520E-12   0.778E-15 -.411E-14 0.807E-15   -.194E-25 0.129E-25 0.129E-25   0.477E-13 -.864E-13 0.632E-13
   -.367E-13 0.157E-11 -.278E-11   0.907E-15 0.103E-13 -.122E-14   0.194E-25 -.420E-25 0.258E-25   0.491E-13 0.541E-13 -.724E-13
   0.579E-13 0.742E-14 -.674E-13   0.159E-14 -.241E-14 -.469E-15   -.517E-25 0.194E-25 0.000E+00   0.428E-13 -.480E-13 -.540E-13
   0.568E-13 0.746E-12 0.660E-12   0.185E-14 0.133E-14 0.370E-14   0.207E-24 0.000E+00 -.258E-24   0.431E-13 0.410E-13 0.383E-13
   0.125E-13 0.201E-13 0.579E-13   -.182E-14 -.381E-14 0.369E-14   0.775E-25 -.517E-25 0.000E+00   -.412E-13 -.485E-13 0.392E-13
   0.124E-13 0.635E-13 0.217E-13   -.156E-14 -.581E-16 0.272E-15   -.103E-24 -.233E-24 -.258E-24   -.412E-13 0.369E-13 -.541E-13
 -----------------------------------------------------------------------------------------------
   0.287E-13 0.232E-11 -.268E-11   0.139E-14 0.883E-15 0.389E-15   0.937E-25 -.291E-24 -.517E-24   -.513E-13 -.782E-13 -.597E-13
 
 
 POSITION                                       TOTAL-FORCE (eV/Angst)
 -----------------------------------------------------------------------------------
      0.00000      0.00000      0.00000         0.000000      0.000000      0.000000
      0.00000      2.59909      2.59909         0.000000      0.000000      0.000000
      2.59909      0.00000      2.59909         0.000000      0.000000      0.000000
      2.59909      2.59909      0.00000         0.000000      0.000000      0.000000
      2.59909      0.00000      0.00000         0.000000      0.000000      0.000000
      2.59909      2.59909      2.59909         0.000000      0.000000      0.000000
      0.00000      0.00000      2.59909         0.000000      0.000000      0.000000
      0.00000      2.59909      0.00000         0.000000      0.000000      0.000000
 -----------------------------------------------------------------------------------
    total drift:                                0.000000      0.000000      0.000000


--------------------------------------------------------------------------------------------------------



  FREE ENERGIE OF THE ION-ELECTRON SYSTEM (eV)
  ---------------------------------------------------
  free  energy   TOTEN  =       -36.22664318 eV

  energy  without entropy=      -36.22664318  energy(sigma->0) =      -36.22664318
 


--------------------------------------------------------------------------------------------------------


    POTLOK:  cpu time    0.05: real time    0.05


--------------------------------------------------------------------------------------------------------




--------------------------------------------------------------------------------------------------------


  
 reached required accuracy - stopping structural energy minimisation
     LOOP+:  cpu time    6.40: real time    6.44
    4ORBIT:  cpu time    0.00: real time    0.00

 total amount of memory used by VASP on root node    39070. kBytes
========================================================================

   base      :      30000. kBytes
   nonl-proj :       1748. kBytes
   fftplans  :       4155. kBytes
   grid      :       1976. kBytes
   one-center:         16. kBytes
   wavefun   :       1175. kBytes
 
  
  
 General timing and accounting informations for this job:
 ========================================================
  
                  Total CPU time used (sec):        7.636
                            User time (sec):        6.563
                          System time (sec):        1.073
                         Elapsed time (sec):        7.890
  
                   Maximum memory used (kb):       72324.
                   Average memory used (kb):           0.
  
                          Minor page faults:       290815
                          Major page faults:            0
                 Voluntary context switches:         2030
