<?xml version="1.0" encoding="ISO-8859-1"?>
<modeling>
 <generator>
  <i name="program" type="string">vasp </i>
  <i name="version" type="string">5.3.5  </i>
  <i name="subversion" type="string">31Mar14 (build Nov 07 2014 11:36:17) complex                          parallel </i>
  <i name="platform" type="string">LinuxIFC </i>
  <i name="date" type="string">2015 10 15 </i>
  <i name="time" type="string">01:05:41 </i>
 </generator>
 <incar>
  <i type="string" name="PREC">accurate</i>
  <i type="int" name="IALGO">    38</i>
  <i type="logical" name="ADDGRID"> T  </i>
  <i type="int" name="NELMIN">     5</i>
  <i type="int" name="IBRION">     2</i>
  <i name="EDIFF">      0.00000001</i>
  <i name="EDIFFG">     -0.00000001</i>
  <i type="int" name="NSW">    20</i>
  <i type="int" name="ISIF">     4</i>
  <i name="ENCUT">    525.10770000</i>
  <i type="logical" name="LREAL"> F  </i>
  <i type="int" name="ISMEAR">     0</i>
  <i name="SIGMA">      0.01000000</i>
  <i type="logical" name="LWAVE"> F  </i>
  <i type="logical" name="LCHARG"> F  </i>
  <i type="string" name="GGA"> PS</i>
 </incar>
 <kpoints>
  <generation param="Gamma">
   <v type="int" name="divisions">       4        4        4 </v>
   <v name="usershift">      0.00000000       0.00000000       0.00000000 </v>
   <v name="genvec1">      0.25000000       0.00000000       0.00000000 </v>
   <v name="genvec2">      0.00000000       0.25000000       0.00000000 </v>
   <v name="genvec3">      0.00000000       0.00000000       0.25000000 </v>
   <v name="shift">      0.00000000       0.00000000       0.00000000 </v>
  </generation>
  <varray name="kpointlist" >
   <v>       0.00000000       0.00000000       0.00000000 </v>
   <v>       0.25000000       0.00000000       0.00000000 </v>
   <v>       0.50000000       0.00000000       0.00000000 </v>
   <v>       0.25000000       0.25000000       0.00000000 </v>
   <v>       0.50000000       0.25000000       0.00000000 </v>
   <v>       0.50000000       0.50000000       0.00000000 </v>
   <v>       0.25000000       0.25000000       0.25000000 </v>
   <v>       0.50000000       0.25000000       0.25000000 </v>
   <v>       0.50000000       0.50000000       0.25000000 </v>
   <v>       0.50000000       0.50000000       0.50000000 </v>
  </varray>
  <varray name="weights" >
   <v>       0.01562500 </v>
   <v>       0.09375000 </v>
   <v>       0.04687500 </v>
   <v>       0.18750000 </v>
   <v>       0.18750000 </v>
   <v>       0.04687500 </v>
   <v>       0.12500000 </v>
   <v>       0.18750000 </v>
   <v>       0.09375000 </v>
   <v>       0.01562500 </v>
  </varray>
 </kpoints>
 <parameters>
  <separator name="general" >
   <i type="string" name="SYSTEM">unknown system</i>
   <i type="logical" name="LCOMPAT"> F  </i>
  </separator>
  <separator name="electronic" >
   <i type="string" name="PREC">accura</i>
   <i name="ENMAX">    525.10770000</i>
   <i name="ENAUG">    758.78000000</i>
   <i name="EDIFF">      0.00000001</i>
   <i type="int" name="IALGO">    38</i>
   <i type="int" name="IWAVPR">    11</i>
   <i type="int" name="NBANDS">    36</i>
   <i name="NELECT">     56.00000000</i>
   <i type="int" name="TURBO">     0</i>
   <i type="int" name="IRESTART">     0</i>
   <i type="int" name="NREBOOT">     0</i>
   <i type="int" name="NMIN">     0</i>
   <i name="EREF">      0.00000000</i>
   <separator name="electronic smearing" >
    <i type="int" name="ISMEAR">     0</i>
    <i name="SIGMA">      0.01000000</i>
    <i name="KSPACING">      0.50000000</i>
    <i type="logical" name="KGAMMA"> T  </i>
   </separator>
   <separator name="electronic projectors" >
    <i type="logical" name="LREAL"> F  </i>
    <v name="ROPT">      0.00000000      0.00000000</v>
    <i type="int" name="LMAXPAW">  -100</i>
    <i type="int" name="LMAXMIX">     2</i>
    <i type="logical" name="NLSPLINE"> F  </i>
   </separator>
   <separator name="electronic startup" >
    <i type="int" name="ISTART">     0</i>
    <i type="int" name="ICHARG">     2</i>
    <i type="int" name="INIWAV">     1</i>
   </separator>
   <separator name="electronic spin" >
    <i type="int" name="ISPIN">     1</i>
    <i type="logical" name="LNONCOLLINEAR"> F  </i>
    <v name="MAGMOM">      1.00000000      1.00000000      1.00000000      1.00000000      1.00000000      1.00000000      1.00000000      1.00000000</v>
    <i name="NUPDOWN">     -1.00000000</i>
    <i type="logical" name="LSORBIT"> F  </i>
    <v name="SAXIS">      0.00000000      0.00000000      1.00000000</v>
    <i type="logical" name="LSPIRAL"> F  </i>
    <v name="QSPIRAL">      0.00000000      0.00000000      0.00000000</v>
    <i type="logical" name="LZEROZ"> F  </i>
   </separator>
   <separator name="electronic exchange-correlation" >
    <i type="logical" name="LASPH"> F  </i>
    <i type="logical" name="LMETAGGA"> F  </i>
   </separator>
   <separator name="electronic convergence" >
    <i type="int" name="NELM">    60</i>
    <i type="int" name="NELMDL">    -5</i>
    <i type="int" name="NELMIN">     5</i>
    <i name="ENINI">    525.10770000</i>
    <separator name="electronic convergence detail" >
     <i type="logical" name="LDIAG"> T  </i>
     <i type="logical" name="LSUBROT"> F  </i>
     <i name="WEIMIN">      0.00100000</i>
     <i name="EBREAK">      0.00000000</i>
     <i name="DEPER">      0.30000000</i>
     <i type="int" name="NRMM">     4</i>
     <i name="TIME">      0.40000000</i>
    </separator>
   </separator>
   <separator name="electronic mixer" >
    <i name="AMIX">      0.40000000</i>
    <i name="BMIX">      1.00000000</i>
    <i name="AMIN">      0.10000000</i>
    <i name="AMIX_MAG">      1.60000000</i>
    <i name="BMIX_MAG">      1.00000000</i>
    <separator name="electronic mixer details" >
     <i type="int" name="IMIX">     4</i>
     <i type="int" name="MAXMIX">   -45</i>
     <i name="WC">    100.00000000</i>
     <i type="int" name="INIMIX">     1</i>
     <i type="int" name="MIXPRE">     1</i>
     <i type="int" name="MREMOVE">     5</i>
    </separator>
   </separator>
   <separator name="electronic dipolcorrection" >
    <i type="logical" name="LDIPOL"> F  </i>
    <i type="logical" name="LMONO"> F  </i>
    <i type="int" name="IDIPOL">     0</i>
    <i name="EPSILON">      1.00000000</i>
    <v name="DIPOL">   -100.00000000   -100.00000000   -100.00000000</v>
    <i name="EFIELD">      0.00000000</i>
   </separator>
  </separator>
  <separator name="grids" >
   <i type="int" name="NGX">    40</i>
   <i type="int" name="NGY">    40</i>
   <i type="int" name="NGZ">    40</i>
   <i type="int" name="NGXF">    80</i>
   <i type="int" name="NGYF">    80</i>
   <i type="int" name="NGZF">    80</i>
   <i type="logical" name="ADDGRID"> T  </i>
  </separator>
  <separator name="ionic" >
   <i type="int" name="NSW">    20</i>
   <i type="int" name="IBRION">     2</i>
   <i type="int" name="ISIF">     4</i>
   <i name="PSTRESS">      0.00000000</i>
   <i name="EDIFFG">     -0.00000001</i>
   <i type="int" name="NFREE">     1</i>
   <i name="POTIM">      0.50000000</i>
   <i name="SMASS">     -3.00000000</i>
   <i name="SCALEE">      1.00000000</i>
  </separator>
  <separator name="ionic md" >
   <i name="TEBEG">      0.00010000</i>
   <i name="TEEND">      0.00010000</i>
   <i type="int" name="NBLOCK">     1</i>
   <i type="int" name="KBLOCK">    20</i>
   <i type="int" name="NPACO">   256</i>
   <i name="APACO">     16.00000000</i>
  </separator>
  <separator name="symmetry" >
   <i type="int" name="ISYM">     2</i>
   <i name="SYMPREC">      0.00001000</i>
  </separator>
  <separator name="dos" >
   <i type="logical" name="LORBIT"> F  </i>
   <v name="RWIGS">     -1.00000000     -1.00000000</v>
   <i type="int" name="NEDOS">   301</i>
   <i name="EMIN">     10.00000000</i>
   <i name="EMAX">    -10.00000000</i>
   <i name="EFERMI">      0.00000000</i>
  </separator>
  <separator name="writing" >
   <i type="int" name="NWRITE">     2</i>
   <i type="logical" name="LWAVE"> F  </i>
   <i type="logical" name="LCHARG"> F  </i>
   <i type="logical" name="LPARD"> F  </i>
   <i type="logical" name="LVTOT"> F  </i>
   <i type="logical" name="LVHAR"> F  </i>
   <i type="logical" name="LELF"> F  </i>
   <i type="logical" name="LOPTICS"> F  </i>
   <v name="STM">      0.00000000      0.00000000      0.00000000      0.00000000      0.00000000      0.00000000      0.00000000</v>
  </separator>
  <separator name="performance" >
   <i type="int" name="NPAR">     4</i>
   <i type="int" name="NSIM">     4</i>
   <i type="int" name="NBLK">    -1</i>
   <i type="logical" name="LPLANE"> T  </i>
   <i type="logical" name="LSCALAPACK"> T  </i>
   <i type="logical" name="LSCAAWARE"> F  </i>
   <i type="logical" name="LSCALU"> F  </i>
   <i type="logical" name="LASYNC"> F  </i>
   <i type="logical" name="LORBITALREAL"> F  </i>
  </separator>
  <separator name="miscellaneous" >
   <i type="int" name="IDIOT">     3</i>
   <i type="logical" name="LMUSIC"> F  </i>
   <v name="POMASS">     24.30500000     32.06600000</v>
   <v name="DARWINR">      0.00000000      0.00000000</v>
   <v name="DARWINV">      1.00000000      1.00000000</v>
   <i type="logical" name="LCORR"> T  </i>
  </separator>
  <i type="logical" name="GGA_COMPAT"> T  </i>
  <i type="logical" name="LBERRY"> F  </i>
  <i type="int" name="ICORELEVEL">     0</i>
  <i type="logical" name="LDAU"> F  </i>
  <i type="int" name="I_CONSTRAINED_M">     0</i>
  <separator name="electronic exchange-correlation" >
   <i type="string" name="GGA">PS</i>
   <i type="int" name="VOSKOWN">     0</i>
   <i type="logical" name="LHFCALC"> F  </i>
   <i type="string" name="PRECFOCK"></i>
   <i type="logical" name="LSYMGRAD"> F  </i>
   <i type="logical" name="LHFONE"> F  </i>
   <i type="logical" name="LRHFCALC"> F  </i>
   <i type="logical" name="LTHOMAS"> F  </i>
   <i type="logical" name="LMODELHF"> F  </i>
   <i name="ENCUT4O">     -1.00000000</i>
   <i type="int" name="EXXOEP">     0</i>
   <i type="int" name="FOURORBIT">     0</i>
   <i name="AEXX">      0.00000000</i>
   <i name="HFALPHA">      0.00000000</i>
   <i name="MCALPHA">      0.00000000</i>
   <i name="ALDAX">      1.00000000</i>
   <i name="AGGAX">      1.00000000</i>
   <i name="ALDAC">      1.00000000</i>
   <i name="AGGAC">      1.00000000</i>
   <i type="int" name="NKREDX">     1</i>
   <i type="int" name="NKREDY">     1</i>
   <i type="int" name="NKREDZ">     1</i>
   <i type="logical" name="SHIFTRED"> F  </i>
   <i type="logical" name="ODDONLY"> F  </i>
   <i type="logical" name="EVENONLY"> F  </i>
   <i type="int" name="LMAXFOCK">     0</i>
   <i type="int" name="NMAXFOCKAE">     0</i>
   <i type="logical" name="LFOCKAEDFT"> F  </i>
   <i name="HFSCREEN">      0.00000000</i>
   <i name="HFSCREENC">      0.00000000</i>
   <i type="int" name="NBANDSGWLOW">     0</i>
  </separator>
  <separator name="vdW DFT" >
   <i type="logical" name="LUSE_VDW"> F  </i>
   <i name="Zab_VDW">     -0.84910000</i>
   <i name="PARAM1">      0.12340000</i>
   <i name="PARAM2">      1.00000000</i>
   <i name="PARAM3">      0.00000000</i>
  </separator>
  <separator name="model GW" >
   <i type="int" name="MODEL_GW">     0</i>
   <i name="MODEL_EPS0">     10.53456438</i>
   <i name="MODEL_ALPHA">      1.00000000</i>
  </separator>
  <separator name="linear response parameters" >
   <i type="logical" name="LEPSILON"> F  </i>
   <i type="logical" name="LRPA"> F  </i>
   <i type="logical" name="LNABLA"> F  </i>
   <i type="logical" name="LVEL"> F  </i>
   <i type="int" name="KINTER">     0</i>
   <i name="CSHIFT">      0.10000000</i>
   <i name="OMEGAMAX">     -1.00000000</i>
   <i name="DEG_THRESHOLD">      0.00200000</i>
  </separator>
  <separator name="orbital magnetization" >
   <i type="logical" name="NUCIND"> F  </i>
   <v name="MAGPOS">      0.00000000      0.00000000      0.00000000</v>
   <i type="logical" name="LNICSALL"> T  </i>
   <i type="logical" name="ORBITALMAG"> F  </i>
   <i type="logical" name="LMAGBLOCH"> F  </i>
   <i type="logical" name="LCHIMAG"> F  </i>
   <i type="logical" name="LGAUGE"> T  </i>
   <i type="int" name="MAGATOM">     0</i>
   <v name="MAGDIPOL">      0.00000000      0.00000000      0.00000000</v>
   <v name="AVECCONST">      0.00000000      0.00000000      0.00000000</v>
  </separator>
  <separator name="response functions" >
   <i type="logical" name="LADDER"> F  </i>
   <i type="logical" name="LFXC"> F  </i>
   <i type="logical" name="LHARTREE"> T  </i>
   <i type="int" name="IBSE">     0</i>
   <i type="logical" name="LTCTE"> F  </i>
   <i type="logical" name="LTETE"> F  </i>
   <i type="logical" name="LTRIPLET"> F  </i>
   <i type="logical" name="LFXCEPS"> F  </i>
   <i type="logical" name="LFXHEG"> F  </i>
   <i type="logical" name="L2ORDER"> F  </i>
   <i type="logical" name="LUSEW"> F  </i>
   <i name="ENCUTGW">     -2.00000000</i>
   <i name="ENCUTGWSOFT">     -2.00000000</i>
   <i name="ENCUTLF">     -1.00000000</i>
   <i type="int" name="LMAXMP2">    -1</i>
   <i name="SCISSOR">      0.00000000</i>
   <i type="int" name="NOMEGA">     0</i>
   <i type="int" name="NOMEGAR">     0</i>
   <i type="int" name="NBANDSGW">    -1</i>
   <i type="int" name="NBANDSO">    -1</i>
   <i type="int" name="NBANDSV">    -1</i>
   <i type="int" name="NELM">     1</i>
   <i type="int" name="DIM">     3</i>
   <i type="int" name="ANTIRES">     0</i>
   <i name="OMEGAMAX">    -30.00000000</i>
   <i name="OMEGAMIN">    -30.00000000</i>
   <i name="OMEGATL">   -200.00000000</i>
   <i type="int" name="OMEGAGRID">     0</i>
   <i name="CSHIFT">     -0.10000000</i>
   <i type="logical" name="SELFENERGY"> F  </i>
   <i type="logical" name="LSPECTRAL"> F  </i>
   <i type="logical" name="ODDONLYGW"> F  </i>
   <i type="logical" name="EVENONLYGW"> F  </i>
   <i type="int" name="NKREDLFX">     1</i>
   <i type="int" name="NKREDLFY">     1</i>
   <i type="int" name="NKREDLFZ">     1</i>
   <i type="int" name="MAXMEM">  1800</i>
   <i type="int" name="TELESCOPE">     0</i>
   <i type="int" name="TAUPAR">     1</i>
  </separator>
  <separator name="External order field" >
   <i name="OFIELD_KAPPA">      0.00000000</i>
   <v name="OFIELD_K">      0.00000000      0.00000000      0.00000000</v>
   <i name="OFIELD_Q6_NEAR">      0.00000000</i>
   <i name="OFIELD_Q6_FAR">      0.00000000</i>
   <i name="OFIELD_A">      0.00000000</i>
  </separator>
 </parameters>
 <atominfo>
  <atoms>       8 </atoms>
  <types>       2 </types>
  <array name="atoms" >
   <dimension dim="1">ion</dimension>
   <field type="string">element</field>
   <field type="int">atomtype</field>
   <set>
    <rc><c>Mg</c><c>   1</c></rc>
    <rc><c>Mg</c><c>   1</c></rc>
    <rc><c>Mg</c><c>   1</c></rc>
    <rc><c>Mg</c><c>   1</c></rc>
    <rc><c>S </c><c>   2</c></rc>
    <rc><c>S </c><c>   2</c></rc>
    <rc><c>S </c><c>   2</c></rc>
    <rc><c>S </c><c>   2</c></rc>
   </set>
  </array>
  <array name="atomtypes" >
   <dimension dim="1">type</dimension>
   <field type="int">atomspertype</field>
   <field type="string">element</field>
   <field>mass</field>
   <field>valence</field>
   <field type="string">pseudopotential</field>
   <set>
    <rc><c>   4</c><c>Mg</c><c>     24.30500000</c><c>      8.00000000</c><c>  PAW_PBE Mg_pv 13Apr2007               </c></rc>
    <rc><c>   4</c><c>S </c><c>     32.06600000</c><c>      6.00000000</c><c>  PAW_PBE S 06Sep2000                   </c></rc>
   </set>
  </array>
 </atominfo>
 <structure name="initialpos" >
  <crystal>
   <varray name="basis" >
    <v>       5.19818549       0.00000000       0.00000000 </v>
    <v>       0.00000000       5.19818549       0.00000000 </v>
    <v>       0.00000000       0.00000000       5.19818549 </v>
   </varray>
   <i name="volume">    140.46085837 </i>
   <varray name="rec_basis" >
    <v>       0.19237482       0.00000000       0.00000000 </v>
    <v>       0.00000000       0.19237482       0.00000000 </v>
    <v>       0.00000000       0.00000000       0.19237482 </v>
   </varray>
  </crystal>
  <varray name="positions" >
   <v>       0.00000000       0.00000000       0.00000000 </v>
   <v>       0.00000000       0.50000000       0.50000000 </v>
   <v>       0.50000000       0.00000000       0.50000000 </v>
   <v>       0.50000000       0.50000000       0.00000000 </v>
   <v>       0.50000000       0.00000000       0.00000000 </v>
   <v>       0.50000000       0.50000000       0.50000000 </v>
   <v>       0.00000000       0.00000000       0.50000000 </v>
   <v>       0.00000000       0.50000000       0.00000000 </v>
  </varray>
 </structure>
 <calculation>
  <scstep>
   <time name="dav">    0.29    0.29</time>
   <time name="total">    0.34    0.35</time>
   <energy>
    <i name="alphaZ">    151.16398193 </i>
    <i name="ewald">  -3119.75347523 </i>
    <i name="hartreedc">  -1168.79025557 </i>
    <i name="XCdc">    159.23734617 </i>
    <i name="pawpsdc">   3462.71711756 </i>
    <i name="pawaedc">  -3919.80126840 </i>
    <i name="eentropy">     -0.00096414 </i>
    <i name="bandstr">   -426.58151710 </i>
    <i name="atom">   5321.70543053 </i>
    <i name="e_fr_energy">    459.89639574 </i>
    <i name="e_wo_entrp">    459.89735988 </i>
    <i name="e_0_energy">    459.89687781 </i>
   </energy>
  </scstep>
  <scstep>
   <time name="dav">    0.26    0.26</time>
   <time name="total">    0.26    0.26</time>
   <energy>
    <i name="e_fr_energy">     -1.67986796 </i>
    <i name="e_wo_entrp">     -1.67986796 </i>
    <i name="e_0_energy">     -1.67986796 </i>
   </energy>
  </scstep>
  <scstep>
   <time name="dav">    0.27    0.27</time>
   <time name="total">    0.27    0.27</time>
   <energy>
    <i name="e_fr_energy">    -36.61961247 </i>
    <i name="e_wo_entrp">    -36.61961247 </i>
    <i name="e_0_energy">    -36.61961247 </i>
   </energy>
  </scstep>
  <scstep>
   <time name="dav">    0.27    0.27</time>
   <time name="total">    0.27    0.27</time>
   <energy>
    <i name="e_fr_energy">    -37.69464081 </i>
    <i name="e_wo_entrp">    -37.69464081 </i>
    <i name="e_0_energy">    -37.69464081 </i>
   </energy>
  </scstep>
  <scstep>
   <time name="dav">    0.27    0.27</time>
   <time name="total">    0.33    0.33</time>
   <energy>
    <i name="e_fr_energy">    -37.72139755 </i>
    <i name="e_wo_entrp">    -37.72139755 </i>
    <i name="e_0_energy">    -37.72139755 </i>
   </energy>
  </scstep>
  <scstep>
   <time name="dav">    0.24    0.24</time>
   <time name="total">    0.35    0.35</time>
   <energy>
    <i name="e_fr_energy">    -36.39368441 </i>
    <i name="e_wo_entrp">    -36.39368441 </i>
    <i name="e_0_energy">    -36.39368441 </i>
   </energy>
  </scstep>
  <scstep>
   <time name="dav">    0.28    0.28</time>
   <time name="total">    0.39    0.39</time>
   <energy>
    <i name="e_fr_energy">    -36.23438938 </i>
    <i name="e_wo_entrp">    -36.23438938 </i>
    <i name="e_0_energy">    -36.23438938 </i>
   </energy>
  </scstep>
  <scstep>
   <time name="dav">    0.24    0.24</time>
   <time name="total">    0.35    0.35</time>
   <energy>
    <i name="e_fr_energy">    -36.22746694 </i>
    <i name="e_wo_entrp">    -36.22746694 </i>
    <i name="e_0_energy">    -36.22746694 </i>
   </energy>
  </scstep>
  <scstep>
   <time name="dav">    0.27    0.27</time>
   <time name="total">    0.38    0.38</time>
   <energy>
    <i name="e_fr_energy">    -36.22661965 </i>
    <i name="e_wo_entrp">    -36.22661965 </i>
    <i name="e_0_energy">    -36.22661965 </i>
   </energy>
  </scstep>
  <scstep>
   <time name="dav">    0.28    0.28</time>
   <time name="total">    0.38    0.39</time>
   <energy>
    <i name="e_fr_energy">    -36.22664833 </i>
    <i name="e_wo_entrp">    -36.22664833 </i>
    <i name="e_0_energy">    -36.22664833 </i>
   </energy>
  </scstep>
  <scstep>
   <time name="dav">    0.26    0.26</time>
   <time name="total">    0.36    0.37</time>
   <energy>
    <i name="e_fr_energy">    -36.22664401 </i>
    <i name="e_wo_entrp">    -36.22664401 </i>
    <i name="e_0_energy">    -36.22664401 </i>
   </energy>
  </scstep>
  <scstep>
   <time name="dav">    0.27    0.27</time>
   <time name="total">    0.38    0.38</time>
   <energy>
    <i name="e_fr_energy">    -36.22664325 </i>
    <i name="e_wo_entrp">    -36.22664325 </i>
    <i name="e_0_energy">    -36.22664325 </i>
   </energy>
  </scstep>
  <scstep>
   <time name="dav">    0.27    0.27</time>
   <time name="total">    0.38    0.38</time>
   <energy>
    <i name="e_fr_energy">    -36.22664319 </i>
    <i name="e_wo_entrp">    -36.22664319 </i>
    <i name="e_0_energy">    -36.22664319 </i>
   </energy>
  </scstep>
  <scstep>
   <time name="dav">    0.25    0.25</time>
   <time name="total">    0.36    0.36</time>
   <energy>
    <i name="e_fr_energy">    -36.22664315 </i>
    <i name="e_wo_entrp">    -36.22664315 </i>
    <i name="e_0_energy">    -36.22664315 </i>
   </energy>
  </scstep>
  <scstep>
   <time name="dav">    0.23    0.23</time>
   <time name="total">    0.34    0.34</time>
   <energy>
    <i name="e_fr_energy">    -36.22664319 </i>
    <i name="e_wo_entrp">    -36.22664319 </i>
    <i name="e_0_energy">    -36.22664319 </i>
   </energy>
  </scstep>
  <scstep>
   <time name="dav">    0.17    0.17</time>
   <time name="total">    0.21    0.22</time>
   <energy>
    <i name="alphaZ">    151.16398193 </i>
    <i name="ewald">  -3119.75347523 </i>
    <i name="hartreedc">  -1159.58867195 </i>
    <i name="XCdc">    161.25876294 </i>
    <i name="pawpsdc">   4651.42736728 </i>
    <i name="pawaedc">  -5104.29833853 </i>
    <i name="eentropy">      0.00000000 </i>
    <i name="bandstr">   -938.14170016 </i>
    <i name="atom">   5321.70543053 </i>
    <i name="e_fr_energy">    -36.22664318 </i>
    <i name="e_wo_entrp">    -36.22664318 </i>
    <i name="e_0_energy">    -36.22664318 </i>
   </energy>
  </scstep>
  <structure>
   <crystal>
    <varray name="basis" >
     <v>       5.19818549       0.00000000       0.00000000 </v>
     <v>       0.00000000       5.19818549       0.00000000 </v>
     <v>       0.00000000       0.00000000       5.19818549 </v>
    </varray>
    <i name="volume">    140.46085837 </i>
    <varray name="rec_basis" >
     <v>       0.19237482       0.00000000       0.00000000 </v>
     <v>       0.00000000       0.19237482       0.00000000 </v>
     <v>       0.00000000       0.00000000       0.19237482 </v>
    </varray>
   </crystal>
   <varray name="positions" >
    <v>       0.00000000       0.00000000       0.00000000 </v>
    <v>       0.00000000       0.50000000       0.50000000 </v>
    <v>       0.50000000       0.00000000       0.50000000 </v>
    <v>       0.50000000       0.50000000       0.00000000 </v>
    <v>       0.50000000       0.00000000       0.00000000 </v>
    <v>       0.50000000       0.50000000       0.50000000 </v>
    <v>       0.00000000       0.00000000       0.50000000 </v>
    <v>       0.00000000       0.50000000       0.00000000 </v>
   </varray>
  </structure>
  <varray name="forces" >
   <v>       0.00000000       0.00000000       0.00000000 </v>
   <v>       0.00000000       0.00000000       0.00000000 </v>
   <v>       0.00000000       0.00000000       0.00000000 </v>
   <v>       0.00000000       0.00000000       0.00000000 </v>
   <v>       0.00000000       0.00000000       0.00000000 </v>
   <v>       0.00000000       0.00000000       0.00000000 </v>
   <v>       0.00000000       0.00000000       0.00000000 </v>
   <v>       0.00000000       0.00000000       0.00000000 </v>
  </varray>
  <varray name="stress" >
   <v>      -7.65867621       0.00000000       0.00000000 </v>
   <v>       0.00000000      -7.65867621       0.00000000 </v>
   <v>       0.00000000       0.00000000      -7.65867621 </v>
  </varray>
  <energy>
   <i name="e_fr_energy">    -36.22664318 </i>
   <i name="e_wo_entrp">    -36.22664318 </i>
   <i name="e_0_energy">      0.00000000 </i>
  </energy>
  <time name="totalsc">    6.40    6.44</time>
  <eigenvalues>
   <array>
    <dimension dim="1">band</dimension>
    <dimension dim="2">kpoint</dimension>
    <dimension dim="3">spin</dimension>
    <field>eigene</field>
    <field>occ</field>
    <set>
     <set comment="spin 1">
      <set comment="kpoint 1">
       <r>  -37.7504    1.0000 </r>
       <r>  -37.7504    1.0000 </r>
       <r>  -37.7504    1.0000 </r>
       <r>  -37.7468    1.0000 </r>
       <r>  -37.7468    1.0000 </r>
       <r>  -37.7468    1.0000 </r>
       <r>  -37.7468    1.0000 </r>
       <r>  -37.7468    1.0000 </r>
       <r>  -37.7468    1.0000 </r>
       <r>  -37.7438    1.0000 </r>
       <r>  -37.7438    1.0000 </r>
       <r>  -37.7438    1.0000 </r>
       <r>   -9.2029    1.0000 </r>
       <r>   -7.4880    1.0000 </r>
       <r>   -7.4880    1.0000 </r>
       <r>   -7.4880    1.0000 </r>
       <r>   -0.7669    1.0000 </r>
       <r>   -0.7669    1.0000 </r>
       <r>   -0.7669    1.0000 </r>
       <r>    1.7888    1.0000 </r>
       <r>    1.7888    1.0000 </r>
       <r>    1.7888    1.0000 </r>
       <r>    1.7888    1.0000 </r>
       <r>    1.7888    1.0000 </r>
       <r>    1.7888    1.0000 </r>
       <r>    3.5002    1.0000 </r>
       <r>    3.5002    1.0000 </r>
       <r>    3.5002    1.0000 </r>
       <r>    6.2154    0.0000 </r>
       <r>    6.2154    0.0000 </r>
       <r>    6.2154    0.0000 </r>
       <r>    7.1180    0.0000 </r>
       <r>    7.7317    0.0000 </r>
       <r>    7.7317    0.0000 </r>
       <r>    7.7317    0.0000 </r>
       <r>   11.3501    0.0000 </r>
      </set>
      <set comment="kpoint 2">
       <r>  -37.7498    1.0000 </r>
       <r>  -37.7498    1.0000 </r>
       <r>  -37.7497    1.0000 </r>
       <r>  -37.7473    1.0000 </r>
       <r>  -37.7473    1.0000 </r>
       <r>  -37.7468    1.0000 </r>
       <r>  -37.7468    1.0000 </r>
       <r>  -37.7463    1.0000 </r>
       <r>  -37.7463    1.0000 </r>
       <r>  -37.7448    1.0000 </r>
       <r>  -37.7443    1.0000 </r>
       <r>  -37.7443    1.0000 </r>
       <r>   -8.9974    1.0000 </r>
       <r>   -7.8016    1.0000 </r>
       <r>   -7.4635    1.0000 </r>
       <r>   -7.4635    1.0000 </r>
       <r>   -0.5131    1.0000 </r>
       <r>   -0.5131    1.0000 </r>
       <r>   -0.2970    1.0000 </r>
       <r>    1.2040    1.0000 </r>
       <r>    1.2040    1.0000 </r>
       <r>    1.4071    1.0000 </r>
       <r>    1.4071    1.0000 </r>
       <r>    1.9825    1.0000 </r>
       <r>    1.9825    1.0000 </r>
       <r>    2.4686    1.0000 </r>
       <r>    3.1679    1.0000 </r>
       <r>    3.1679    1.0000 </r>
       <r>    6.8567    0.0000 </r>
       <r>    7.2473    0.0000 </r>
       <r>    7.2473    0.0000 </r>
       <r>    8.0489    0.0000 </r>
       <r>    8.2794    0.0000 </r>
       <r>    8.8514    0.0000 </r>
       <r>    8.8514    0.0000 </r>
       <r>   10.3665    0.0000 </r>
      </set>
      <set comment="kpoint 3">
       <r>  -37.7485    1.0000 </r>
       <r>  -37.7485    1.0000 </r>
       <r>  -37.7485    1.0000 </r>
       <r>  -37.7485    1.0000 </r>
       <r>  -37.7475    1.0000 </r>
       <r>  -37.7475    1.0000 </r>
       <r>  -37.7467    1.0000 </r>
       <r>  -37.7467    1.0000 </r>
       <r>  -37.7454    1.0000 </r>
       <r>  -37.7454    1.0000 </r>
       <r>  -37.7454    1.0000 </r>
       <r>  -37.7454    1.0000 </r>
       <r>   -8.4503    1.0000 </r>
       <r>   -8.4503    1.0000 </r>
       <r>   -7.4385    1.0000 </r>
       <r>   -7.4385    1.0000 </r>
       <r>    0.2090    1.0000 </r>
       <r>    0.2090    1.0000 </r>
       <r>    0.2090    1.0000 </r>
       <r>    0.2090    1.0000 </r>
       <r>    0.9025    1.0000 </r>
       <r>    0.9025    1.0000 </r>
       <r>    1.0970    1.0000 </r>
       <r>    1.0970    1.0000 </r>
       <r>    2.5111    1.0000 </r>
       <r>    2.5111    1.0000 </r>
       <r>    2.5111    1.0000 </r>
       <r>    2.5111    1.0000 </r>
       <r>    8.4491    0.0000 </r>
       <r>    8.4491    0.0000 </r>
       <r>    8.7261    0.0000 </r>
       <r>    8.7261    0.0000 </r>
       <r>    8.9755    0.0000 </r>
       <r>    8.9755    0.0000 </r>
       <r>   11.3467    0.0000 </r>
       <r>   11.3479    0.0000 </r>
      </set>
      <set comment="kpoint 4">
       <r>  -37.7494    1.0000 </r>
       <r>  -37.7494    1.0000 </r>
       <r>  -37.7493    1.0000 </r>
       <r>  -37.7482    1.0000 </r>
       <r>  -37.7468    1.0000 </r>
       <r>  -37.7468    1.0000 </r>
       <r>  -37.7463    1.0000 </r>
       <r>  -37.7461    1.0000 </r>
       <r>  -37.7460    1.0000 </r>
       <r>  -37.7460    1.0000 </r>
       <r>  -37.7447    1.0000 </r>
       <r>  -37.7441    1.0000 </r>
       <r>   -8.8050    1.0000 </r>
       <r>   -7.7282    1.0000 </r>
       <r>   -7.7282    1.0000 </r>
       <r>   -7.4855    1.0000 </r>
       <r>   -0.3207    1.0000 </r>
       <r>   -0.3207    1.0000 </r>
       <r>   -0.2627    1.0000 </r>
       <r>    0.2564    1.0000 </r>
       <r>    1.4189    1.0000 </r>
       <r>    1.4189    1.0000 </r>
       <r>    1.5188    1.0000 </r>
       <r>    1.8792    1.0000 </r>
       <r>    1.8792    1.0000 </r>
       <r>    2.1130    1.0000 </r>
       <r>    2.7706    1.0000 </r>
       <r>    3.3898    1.0000 </r>
       <r>    7.3269    0.0000 </r>
       <r>    7.7923    0.0000 </r>
       <r>    7.7923    0.0000 </r>
       <r>    8.7906    0.0000 </r>
       <r>    9.1207    0.0000 </r>
       <r>    9.1207    0.0000 </r>
       <r>   10.1068    0.0000 </r>
       <r>   10.5942    0.0000 </r>
      </set>
      <set comment="kpoint 5">
       <r>  -37.7491    1.0000 </r>
       <r>  -37.7491    1.0000 </r>
       <r>  -37.7483    1.0000 </r>
       <r>  -37.7483    1.0000 </r>
       <r>  -37.7481    1.0000 </r>
       <r>  -37.7481    1.0000 </r>
       <r>  -37.7458    1.0000 </r>
       <r>  -37.7458    1.0000 </r>
       <r>  -37.7458    1.0000 </r>
       <r>  -37.7458    1.0000 </r>
       <r>  -37.7448    1.0000 </r>
       <r>  -37.7448    1.0000 </r>
       <r>   -8.3018    1.0000 </r>
       <r>   -8.3018    1.0000 </r>
       <r>   -7.5808    1.0000 </r>
       <r>   -7.5808    1.0000 </r>
       <r>   -0.2704    1.0000 </r>
       <r>   -0.2704    1.0000 </r>
       <r>    0.3765    1.0000 </r>
       <r>    0.3765    1.0000 </r>
       <r>    0.4475    1.0000 </r>
       <r>    0.4475    1.0000 </r>
       <r>    2.0124    1.0000 </r>
       <r>    2.0124    1.0000 </r>
       <r>    2.0193    1.0000 </r>
       <r>    2.0193    1.0000 </r>
       <r>    2.8086    1.0000 </r>
       <r>    2.8086    1.0000 </r>
       <r>    8.6888    0.0000 </r>
       <r>    8.6888    0.0000 </r>
       <r>    9.2429    0.0000 </r>
       <r>    9.2429    0.0000 </r>
       <r>    9.8621    0.0000 </r>
       <r>    9.8621    0.0000 </r>
       <r>   10.4938    0.0000 </r>
       <r>   10.5154    0.0000 </r>
      </set>
      <set comment="kpoint 6">
       <r>  -37.7491    1.0000 </r>
       <r>  -37.7491    1.0000 </r>
       <r>  -37.7491    1.0000 </r>
       <r>  -37.7491    1.0000 </r>
       <r>  -37.7469    1.0000 </r>
       <r>  -37.7469    1.0000 </r>
       <r>  -37.7469    1.0000 </r>
       <r>  -37.7469    1.0000 </r>
       <r>  -37.7449    1.0000 </r>
       <r>  -37.7449    1.0000 </r>
       <r>  -37.7449    1.0000 </r>
       <r>  -37.7449    1.0000 </r>
       <r>   -7.9391    1.0000 </r>
       <r>   -7.9391    1.0000 </r>
       <r>   -7.9391    1.0000 </r>
       <r>   -7.9391    1.0000 </r>
       <r>   -0.2595    1.0000 </r>
       <r>   -0.2595    1.0000 </r>
       <r>   -0.2595    1.0000 </r>
       <r>   -0.2595    1.0000 </r>
       <r>    1.1180    1.0000 </r>
       <r>    1.1180    1.0000 </r>
       <r>    1.1180    1.0000 </r>
       <r>    1.1180    1.0000 </r>
       <r>    2.8551    1.0000 </r>
       <r>    2.8551    1.0000 </r>
       <r>    2.8551    1.0000 </r>
       <r>    2.8551    1.0000 </r>
       <r>    9.0832    0.0000 </r>
       <r>    9.0832    0.0000 </r>
       <r>    9.0832    0.0000 </r>
       <r>    9.0832    0.0000 </r>
       <r>   11.0373    0.0000 </r>
       <r>   11.0378    0.0000 </r>
       <r>   11.0392    0.0000 </r>
       <r>   11.0735    0.0000 </r>
      </set>
      <set comment="kpoint 7">
       <r>  -37.7498    1.0000 </r>
       <r>  -37.7498    1.0000 </r>
       <r>  -37.7498    1.0000 </r>
       <r>  -37.7476    1.0000 </r>
       <r>  -37.7468    1.0000 </r>
       <r>  -37.7468    1.0000 </r>
       <r>  -37.7468    1.0000 </r>
       <r>  -37.7458    1.0000 </r>
       <r>  -37.7458    1.0000 </r>
       <r>  -37.7458    1.0000 </r>
       <r>  -37.7444    1.0000 </r>
       <r>  -37.7444    1.0000 </r>
       <r>   -8.6287    1.0000 </r>
       <r>   -7.6951    1.0000 </r>
       <r>   -7.6951    1.0000 </r>
       <r>   -7.6951    1.0000 </r>
       <r>   -0.6106    1.0000 </r>
       <r>   -0.6106    1.0000 </r>
       <r>   -0.6106    1.0000 </r>
       <r>    0.6437    1.0000 </r>
       <r>    1.2463    1.0000 </r>
       <r>    1.2463    1.0000 </r>
       <r>    1.2463    1.0000 </r>
       <r>    2.2727    1.0000 </r>
       <r>    2.2727    1.0000 </r>
       <r>    2.2727    1.0000 </r>
       <r>    3.1703    1.0000 </r>
       <r>    3.1703    1.0000 </r>
       <r>    7.8235    0.0000 </r>
       <r>    7.8235    0.0000 </r>
       <r>    7.8235    0.0000 </r>
       <r>    8.3410    0.0000 </r>
       <r>   10.1539    0.0000 </r>
       <r>   10.1539    0.0000 </r>
       <r>   10.1539    0.0000 </r>
       <r>   11.2440    0.0000 </r>
      </set>
      <set comment="kpoint 8">
       <r>  -37.7501    1.0000 </r>
       <r>  -37.7501    1.0000 </r>
       <r>  -37.7493    1.0000 </r>
       <r>  -37.7493    1.0000 </r>
       <r>  -37.7467    1.0000 </r>
       <r>  -37.7467    1.0000 </r>
       <r>  -37.7456    1.0000 </r>
       <r>  -37.7456    1.0000 </r>
       <r>  -37.7451    1.0000 </r>
       <r>  -37.7451    1.0000 </r>
       <r>  -37.7451    1.0000 </r>
       <r>  -37.7451    1.0000 </r>
       <r>   -8.1792    1.0000 </r>
       <r>   -8.1792    1.0000 </r>
       <r>   -7.6612    1.0000 </r>
       <r>   -7.6612    1.0000 </r>
       <r>   -0.8784    1.0000 </r>
       <r>   -0.8784    1.0000 </r>
       <r>   -0.3149    1.0000 </r>
       <r>   -0.3149    1.0000 </r>
       <r>    1.3165    1.0000 </r>
       <r>    1.3165    1.0000 </r>
       <r>    2.3254    1.0000 </r>
       <r>    2.3254    1.0000 </r>
       <r>    2.5638    1.0000 </r>
       <r>    2.5638    1.0000 </r>
       <r>    2.6920    1.0000 </r>
       <r>    2.6920    1.0000 </r>
       <r>    8.6693    0.0000 </r>
       <r>    8.6693    0.0000 </r>
       <r>    9.0134    0.0000 </r>
       <r>    9.0134    0.0000 </r>
       <r>    9.4953    0.0000 </r>
       <r>    9.4953    0.0000 </r>
       <r>   10.0485    0.0000 </r>
       <r>   10.0485    0.0000 </r>
      </set>
      <set comment="kpoint 9">
       <r>  -37.7504    1.0000 </r>
       <r>  -37.7504    1.0000 </r>
       <r>  -37.7504    1.0000 </r>
       <r>  -37.7504    1.0000 </r>
       <r>  -37.7457    1.0000 </r>
       <r>  -37.7457    1.0000 </r>
       <r>  -37.7457    1.0000 </r>
       <r>  -37.7457    1.0000 </r>
       <r>  -37.7449    1.0000 </r>
       <r>  -37.7449    1.0000 </r>
       <r>  -37.7449    1.0000 </r>
       <r>  -37.7449    1.0000 </r>
       <r>   -7.8995    1.0000 </r>
       <r>   -7.8995    1.0000 </r>
       <r>   -7.8995    1.0000 </r>
       <r>   -7.8995    1.0000 </r>
       <r>   -0.9791    1.0000 </r>
       <r>   -0.9791    1.0000 </r>
       <r>   -0.9791    1.0000 </r>
       <r>   -0.9791    1.0000 </r>
       <r>    2.1130    1.0000 </r>
       <r>    2.1130    1.0000 </r>
       <r>    2.1130    1.0000 </r>
       <r>    2.1130    1.0000 </r>
       <r>    2.8753    1.0000 </r>
       <r>    2.8753    1.0000 </r>
       <r>    2.8753    1.0000 </r>
       <r>    2.8753    1.0000 </r>
       <r>    8.7189    0.0000 </r>
       <r>    8.7189    0.0000 </r>
       <r>    8.7189    0.0000 </r>
       <r>    8.7189    0.0000 </r>
       <r>    9.9178    0.0000 </r>
       <r>    9.9178    0.0000 </r>
       <r>    9.9178    0.0000 </r>
       <r>    9.9178    0.0000 </r>
      </set>
      <set comment="kpoint 10">
       <r>  -37.7512    1.0000 </r>
       <r>  -37.7512    1.0000 </r>
       <r>  -37.7512    1.0000 </r>
       <r>  -37.7512    1.0000 </r>
       <r>  -37.7449    1.0000 </r>
       <r>  -37.7449    1.0000 </r>
       <r>  -37.7449    1.0000 </r>
       <r>  -37.7449    1.0000 </r>
       <r>  -37.7449    1.0000 </r>
       <r>  -37.7449    1.0000 </r>
       <r>  -37.7449    1.0000 </r>
       <r>  -37.7449    1.0000 </r>
       <r>   -7.8586    1.0000 </r>
       <r>   -7.8586    1.0000 </r>
       <r>   -7.8586    1.0000 </r>
       <r>   -7.8586    1.0000 </r>
       <r>   -1.4111    1.0000 </r>
       <r>   -1.4111    1.0000 </r>
       <r>   -1.4111    1.0000 </r>
       <r>   -1.4111    1.0000 </r>
       <r>    2.8959    1.0000 </r>
       <r>    2.8959    1.0000 </r>
       <r>    2.8959    1.0000 </r>
       <r>    2.8959    1.0000 </r>
       <r>    2.8959    1.0000 </r>
       <r>    2.8959    1.0000 </r>
       <r>    2.8959    1.0000 </r>
       <r>    2.8959    1.0000 </r>
       <r>    7.9057    0.0000 </r>
       <r>    7.9057    0.0000 </r>
       <r>    7.9057    0.0000 </r>
       <r>    7.9057    0.0000 </r>
       <r>   10.3328    0.0000 </r>
       <r>   10.3328    0.0000 </r>
       <r>   10.3328    0.0000 </r>
       <r>   10.3328    0.0000 </r>
      </set>
     </set>
    </set>
   </array>
  </eigenvalues>
  <separator name="orbital magnetization" >
   <v name="MAGDIPOLOUT">      0.00000000      0.00000000      0.00000000</v>
  </separator>
  <dos>
   <i name="efermi">      3.58796460 </i>
   <total>
    <array>
     <dimension dim="1">gridpoints</dimension>
     <dimension dim="2">spin</dimension>
     <field>energy</field>
     <field>total</field>
     <field>integrated</field>
     <set>
      <set comment="spin 1">
       <r>   -40.2062     0.0000     0.0000 </r>
       <r>   -40.0262     0.0000     0.0000 </r>
       <r>   -39.8462     0.0000     0.0000 </r>
       <r>   -39.6661     0.0000     0.0000 </r>
       <r>   -39.4861     0.0000     0.0000 </r>
       <r>   -39.3061     0.0000     0.0000 </r>
       <r>   -39.1260     0.0000     0.0000 </r>
       <r>   -38.9460     0.0000     0.0000 </r>
       <r>   -38.7659     0.0000     0.0000 </r>
       <r>   -38.5859     0.0000     0.0000 </r>
       <r>   -38.4059     0.0000     0.0000 </r>
       <r>   -38.2258     0.0000     0.0000 </r>
       <r>   -38.0458     0.0000     0.0000 </r>
       <r>   -37.8658     0.0000     0.0000 </r>
       <r>   -37.6857   133.3053    24.0000 </r>
       <r>   -37.5057     0.0000    24.0000 </r>
       <r>   -37.3256     0.0000    24.0000 </r>
       <r>   -37.1456     0.0000    24.0000 </r>
       <r>   -36.9656     0.0000    24.0000 </r>
       <r>   -36.7855     0.0000    24.0000 </r>
       <r>   -36.6055     0.0000    24.0000 </r>
       <r>   -36.4254     0.0000    24.0000 </r>
       <r>   -36.2454     0.0000    24.0000 </r>
       <r>   -36.0654     0.0000    24.0000 </r>
       <r>   -35.8853     0.0000    24.0000 </r>
       <r>   -35.7053     0.0000    24.0000 </r>
       <r>   -35.5253     0.0000    24.0000 </r>
       <r>   -35.3452     0.0000    24.0000 </r>
       <r>   -35.1652     0.0000    24.0000 </r>
       <r>   -34.9851     0.0000    24.0000 </r>
       <r>   -34.8051     0.0000    24.0000 </r>
       <r>   -34.6251     0.0000    24.0000 </r>
       <r>   -34.4450     0.0000    24.0000 </r>
       <r>   -34.2650     0.0000    24.0000 </r>
       <r>   -34.0850     0.0000    24.0000 </r>
       <r>   -33.9049     0.0000    24.0000 </r>
       <r>   -33.7249     0.0000    24.0000 </r>
       <r>   -33.5448     0.0000    24.0000 </r>
       <r>   -33.3648     0.0000    24.0000 </r>
       <r>   -33.1848     0.0000    24.0000 </r>
       <r>   -33.0047     0.0000    24.0000 </r>
       <r>   -32.8247     0.0000    24.0000 </r>
       <r>   -32.6447     0.0000    24.0000 </r>
       <r>   -32.4646     0.0000    24.0000 </r>
       <r>   -32.2846     0.0000    24.0000 </r>
       <r>   -32.1045     0.0000    24.0000 </r>
       <r>   -31.9245     0.0000    24.0000 </r>
       <r>   -31.7445     0.0000    24.0000 </r>
       <r>   -31.5644     0.0000    24.0000 </r>
       <r>   -31.3844     0.0000    24.0000 </r>
       <r>   -31.2044     0.0000    24.0000 </r>
       <r>   -31.0243     0.0000    24.0000 </r>
       <r>   -30.8443     0.0000    24.0000 </r>
       <r>   -30.6642     0.0000    24.0000 </r>
       <r>   -30.4842     0.0000    24.0000 </r>
       <r>   -30.3042     0.0000    24.0000 </r>
       <r>   -30.1241     0.0000    24.0000 </r>
       <r>   -29.9441     0.0000    24.0000 </r>
       <r>   -29.7640     0.0000    24.0000 </r>
       <r>   -29.5840     0.0000    24.0000 </r>
       <r>   -29.4040     0.0000    24.0000 </r>
       <r>   -29.2239     0.0000    24.0000 </r>
       <r>   -29.0439     0.0000    24.0000 </r>
       <r>   -28.8639     0.0000    24.0000 </r>
       <r>   -28.6838     0.0000    24.0000 </r>
       <r>   -28.5038     0.0000    24.0000 </r>
       <r>   -28.3237     0.0000    24.0000 </r>
       <r>   -28.1437     0.0000    24.0000 </r>
       <r>   -27.9637     0.0000    24.0000 </r>
       <r>   -27.7836     0.0000    24.0000 </r>
       <r>   -27.6036     0.0000    24.0000 </r>
       <r>   -27.4236     0.0000    24.0000 </r>
       <r>   -27.2435     0.0000    24.0000 </r>
       <r>   -27.0635     0.0000    24.0000 </r>
       <r>   -26.8834     0.0000    24.0000 </r>
       <r>   -26.7034     0.0000    24.0000 </r>
       <r>   -26.5234     0.0000    24.0000 </r>
       <r>   -26.3433     0.0000    24.0000 </r>
       <r>   -26.1633     0.0000    24.0000 </r>
       <r>   -25.9833     0.0000    24.0000 </r>
       <r>   -25.8032     0.0000    24.0000 </r>
       <r>   -25.6232     0.0000    24.0000 </r>
       <r>   -25.4431     0.0000    24.0000 </r>
       <r>   -25.2631     0.0000    24.0000 </r>
       <r>   -25.0831     0.0000    24.0000 </r>
       <r>   -24.9030     0.0000    24.0000 </r>
       <r>   -24.7230     0.0000    24.0000 </r>
       <r>   -24.5430     0.0000    24.0000 </r>
       <r>   -24.3629     0.0000    24.0000 </r>
       <r>   -24.1829     0.0000    24.0000 </r>
       <r>   -24.0028     0.0000    24.0000 </r>
       <r>   -23.8228     0.0000    24.0000 </r>
       <r>   -23.6428     0.0000    24.0000 </r>
       <r>   -23.4627     0.0000    24.0000 </r>
       <r>   -23.2827     0.0000    24.0000 </r>
       <r>   -23.1026     0.0000    24.0000 </r>
       <r>   -22.9226     0.0000    24.0000 </r>
       <r>   -22.7426     0.0000    24.0000 </r>
       <r>   -22.5625     0.0000    24.0000 </r>
       <r>   -22.3825     0.0000    24.0000 </r>
       <r>   -22.2025     0.0000    24.0000 </r>
       <r>   -22.0224     0.0000    24.0000 </r>
       <r>   -21.8424     0.0000    24.0000 </r>
       <r>   -21.6623     0.0000    24.0000 </r>
       <r>   -21.4823     0.0000    24.0000 </r>
       <r>   -21.3023     0.0000    24.0000 </r>
       <r>   -21.1222     0.0000    24.0000 </r>
       <r>   -20.9422     0.0000    24.0000 </r>
       <r>   -20.7622     0.0000    24.0000 </r>
       <r>   -20.5821     0.0000    24.0000 </r>
       <r>   -20.4021     0.0000    24.0000 </r>
       <r>   -20.2220     0.0000    24.0000 </r>
       <r>   -20.0420     0.0000    24.0000 </r>
       <r>   -19.8620     0.0000    24.0000 </r>
       <r>   -19.6819     0.0000    24.0000 </r>
       <r>   -19.5019     0.0000    24.0000 </r>
       <r>   -19.3219     0.0000    24.0000 </r>
       <r>   -19.1418     0.0000    24.0000 </r>
       <r>   -18.9618     0.0000    24.0000 </r>
       <r>   -18.7817     0.0000    24.0000 </r>
       <r>   -18.6017     0.0000    24.0000 </r>
       <r>   -18.4217     0.0000    24.0000 </r>
       <r>   -18.2416     0.0000    24.0000 </r>
       <r>   -18.0616     0.0000    24.0000 </r>
       <r>   -17.8816     0.0000    24.0000 </r>
       <r>   -17.7015     0.0000    24.0000 </r>
       <r>   -17.5215     0.0000    24.0000 </r>
       <r>   -17.3414     0.0000    24.0000 </r>
       <r>   -17.1614     0.0000    24.0000 </r>
       <r>   -16.9814     0.0000    24.0000 </r>
       <r>   -16.8013     0.0000    24.0000 </r>
       <r>   -16.6213     0.0000    24.0000 </r>
       <r>   -16.4412     0.0000    24.0000 </r>
       <r>   -16.2612     0.0000    24.0000 </r>
       <r>   -16.0812     0.0000    24.0000 </r>
       <r>   -15.9011     0.0000    24.0000 </r>
       <r>   -15.7211     0.0000    24.0000 </r>
       <r>   -15.5411     0.0000    24.0000 </r>
       <r>   -15.3610     0.0000    24.0000 </r>
       <r>   -15.1810     0.0000    24.0000 </r>
       <r>   -15.0009     0.0000    24.0000 </r>
       <r>   -14.8209     0.0000    24.0000 </r>
       <r>   -14.6409     0.0000    24.0000 </r>
       <r>   -14.4608     0.0000    24.0000 </r>
       <r>   -14.2808     0.0000    24.0000 </r>
       <r>   -14.1008     0.0000    24.0000 </r>
       <r>   -13.9207     0.0000    24.0000 </r>
       <r>   -13.7407     0.0000    24.0000 </r>
       <r>   -13.5606     0.0000    24.0000 </r>
       <r>   -13.3806     0.0000    24.0000 </r>
       <r>   -13.2006     0.0000    24.0000 </r>
       <r>   -13.0205     0.0000    24.0000 </r>
       <r>   -12.8405     0.0000    24.0000 </r>
       <r>   -12.6605     0.0000    24.0000 </r>
       <r>   -12.4804     0.0000    24.0000 </r>
       <r>   -12.3004     0.0000    24.0000 </r>
       <r>   -12.1203     0.0000    24.0000 </r>
       <r>   -11.9403     0.0000    24.0000 </r>
       <r>   -11.7603     0.0000    24.0000 </r>
       <r>   -11.5802     0.0000    24.0000 </r>
       <r>   -11.4002     0.0000    24.0000 </r>
       <r>   -11.2201     0.0000    24.0000 </r>
       <r>   -11.0401     0.0000    24.0000 </r>
       <r>   -10.8601     0.0000    24.0000 </r>
       <r>   -10.6800     0.0000    24.0000 </r>
       <r>   -10.5000     0.0000    24.0000 </r>
       <r>   -10.3200     0.0000    24.0000 </r>
       <r>   -10.1399     0.0000    24.0000 </r>
       <r>    -9.9599     0.0000    24.0000 </r>
       <r>    -9.7798     0.0000    24.0000 </r>
       <r>    -9.5998     0.0000    24.0000 </r>
       <r>    -9.4198     0.0000    24.0000 </r>
       <r>    -9.2397     0.0000    24.0000 </r>
       <r>    -9.0597     0.0000    24.0312 </r>
       <r>    -8.8797     0.0000    24.2188 </r>
       <r>    -8.6996     0.0000    24.5938 </r>
       <r>    -8.5196     0.0000    24.8438 </r>
       <r>    -8.3395     0.0000    25.0313 </r>
       <r>    -8.1595     4.1546    26.5292 </r>
       <r>    -7.9795     0.0000    26.5313 </r>
       <r>    -7.7994     1.3427    27.8980 </r>
       <r>    -7.6194     8.3316    30.2188 </r>
       <r>    -7.4394     5.1562    31.8971 </r>
       <r>    -7.2593     0.0000    32.0000 </r>
       <r>    -7.0793     0.0000    32.0000 </r>
       <r>    -6.8992     0.0000    32.0000 </r>
       <r>    -6.7192     0.0000    32.0000 </r>
       <r>    -6.5392     0.0000    32.0000 </r>
       <r>    -6.3591     0.0000    32.0000 </r>
       <r>    -6.1791     0.0000    32.0000 </r>
       <r>    -5.9991     0.0000    32.0000 </r>
       <r>    -5.8190     0.0000    32.0000 </r>
       <r>    -5.6390     0.0000    32.0000 </r>
       <r>    -5.4589     0.0000    32.0000 </r>
       <r>    -5.2789     0.0000    32.0000 </r>
       <r>    -5.0989     0.0000    32.0000 </r>
       <r>    -4.9188     0.0000    32.0000 </r>
       <r>    -4.7388     0.0000    32.0000 </r>
       <r>    -4.5587     0.0000    32.0000 </r>
       <r>    -4.3787     0.0000    32.0000 </r>
       <r>    -4.1987     0.0000    32.0000 </r>
       <r>    -4.0186     0.0000    32.0000 </r>
       <r>    -3.8386     0.0000    32.0000 </r>
       <r>    -3.6586     0.0000    32.0000 </r>
       <r>    -3.4785     0.0000    32.0000 </r>
       <r>    -3.2985     0.0000    32.0000 </r>
       <r>    -3.1184     0.0000    32.0000 </r>
       <r>    -2.9384     0.0000    32.0000 </r>
       <r>    -2.7584     0.0000    32.0000 </r>
       <r>    -2.5783     0.0000    32.0000 </r>
       <r>    -2.3983     0.0000    32.0000 </r>
       <r>    -2.2183     0.0000    32.0000 </r>
       <r>    -2.0382     0.0000    32.0000 </r>
       <r>    -1.8582     0.0000    32.0000 </r>
       <r>    -1.6781     0.0000    32.0000 </r>
       <r>    -1.4981     0.0000    32.0000 </r>
       <r>    -1.3181     0.0000    32.1250 </r>
       <r>    -1.1380     0.0000    32.1250 </r>
       <r>    -0.9580     4.1598    32.8739 </r>
       <r>    -0.7780     0.0306    33.6305 </r>
       <r>    -0.5979     4.0122    34.4411 </r>
       <r>    -0.4179     0.0000    34.8438 </r>
       <r>    -0.2378    13.5361    38.0308 </r>
       <r>    -0.0578     0.0000    38.0312 </r>
       <r>     0.1222     0.0000    38.0312 </r>
       <r>     0.3023     2.0829    38.7812 </r>
       <r>     0.4823     4.1658    40.2812 </r>
       <r>     0.6623     1.3828    40.5302 </r>
       <r>     0.8424     0.0000    40.5312 </r>
       <r>     1.0224     0.0000    40.7188 </r>
       <r>     1.2025     0.8623    41.4365 </r>
       <r>     1.3825     4.1663    43.1563 </r>
       <r>     1.5625     2.0829    44.6562 </r>
       <r>     1.7426     0.0000    44.6563 </r>
       <r>     1.9226     4.1658    45.5937 </r>
       <r>     2.1027     0.4521    47.5501 </r>
       <r>     2.2827     3.8347    49.2841 </r>
       <r>     2.4627     0.2116    50.1319 </r>
       <r>     2.6428     4.1658    51.4063 </r>
       <r>     2.8228     6.1571    53.2648 </r>
       <r>     3.0028     0.0000    54.6562 </r>
       <r>     3.1829     4.7202    55.5061 </r>
       <r>     3.3629     0.0001    55.5313 </r>
       <r>     3.5430     0.5207    56.0000 </r>
       <r>     3.7230     0.0000    56.0000 </r>
       <r>     3.9030     0.0000    56.0000 </r>
       <r>     4.0831     0.0000    56.0000 </r>
       <r>     4.2631     0.0000    56.0000 </r>
       <r>     4.4431     0.0000    56.0000 </r>
       <r>     4.6232     0.0000    56.0000 </r>
       <r>     4.8032     0.0000    56.0000 </r>
       <r>     4.9833     0.0000    56.0000 </r>
       <r>     5.1633     0.0000    56.0000 </r>
       <r>     5.3433     0.0000    56.0000 </r>
       <r>     5.5234     0.0000    56.0000 </r>
       <r>     5.7034     0.0000    56.0000 </r>
       <r>     5.8834     0.0000    56.0000 </r>
       <r>     6.0635     0.0000    56.0000 </r>
       <r>     6.2435     0.5207    56.0937 </r>
       <r>     6.4236     0.0000    56.0938 </r>
       <r>     6.6036     0.0000    56.0938 </r>
       <r>     6.7836     0.0000    56.0938 </r>
       <r>     6.9637     0.0000    56.2812 </r>
       <r>     7.1437     0.1736    56.3125 </r>
       <r>     7.3238     2.7642    56.8102 </r>
       <r>     7.5038     0.0000    57.0625 </r>
       <r>     7.6838     0.0000    57.0625 </r>
       <r>     7.8639     8.3316    58.6562 </r>
       <r>     8.0439     0.2486    58.8260 </r>
       <r>     8.2239     0.0000    58.9688 </r>
       <r>     8.4040     1.3886    59.4063 </r>
       <r>     8.5840     0.0000    59.5938 </r>
       <r>     8.7641     9.3732    62.0313 </r>
       <r>     8.9441     0.0000    62.7813 </r>
       <r>     9.1241     4.9325    64.6068 </r>
       <r>     9.3042     4.1658    65.5938 </r>
       <r>     9.4842     0.2432    65.6375 </r>
       <r>     9.6642     0.0000    66.3438 </r>
       <r>     9.8443     0.0248    66.3482 </r>
       <r>    10.0243     0.0013    67.8440 </r>
       <r>    10.2044     4.1658    69.7187 </r>
       <r>    10.3844     1.7298    70.0302 </r>
       <r>    10.5644     4.1658    70.7813 </r>
       <r>    10.7445     0.0000    71.1562 </r>
       <r>    10.9245     0.0000    71.1562 </r>
       <r>    11.1045     2.0829    71.5312 </r>
       <r>    11.2846     1.3886    71.7812 </r>
       <r>    11.4646     0.0000    72.0000 </r>
       <r>    11.6447     0.0000    72.0000 </r>
       <r>    11.8247     0.0000    72.0000 </r>
       <r>    12.0047     0.0000    72.0000 </r>
       <r>    12.1848     0.0000    72.0000 </r>
       <r>    12.3648     0.0000    72.0000 </r>
       <r>    12.5448     0.0000    72.0000 </r>
       <r>    12.7249     0.0000    72.0000 </r>
       <r>    12.9049     0.0000    72.0000 </r>
       <r>    13.0850     0.0000    72.0000 </r>
       <r>    13.2650     0.0000    72.0000 </r>
       <r>    13.4450     0.0000    72.0000 </r>
       <r>    13.6251     0.0000    72.0000 </r>
       <r>    13.8051     0.0000    72.0000 </r>
      </set>
     </set>
    </array>
   </total>
  </dos>
 </calculation>
 <structure name="finalpos" >
  <crystal>
   <varray name="basis" >
    <v>       5.19818549       0.00000000       0.00000000 </v>
    <v>       0.00000000       5.19818549       0.00000000 </v>
    <v>       0.00000000       0.00000000       5.19818549 </v>
   </varray>
   <i name="volume">    140.46085837 </i>
   <varray name="rec_basis" >
    <v>       0.19237482       0.00000000       0.00000000 </v>
    <v>       0.00000000       0.19237482       0.00000000 </v>
    <v>       0.00000000       0.00000000       0.19237482 </v>
   </varray>
  </crystal>
  <varray name="positions" >
   <v>       0.00000000       0.00000000       0.00000000 </v>
   <v>       0.00000000       0.50000000       0.50000000 </v>
   <v>       0.50000000       0.00000000       0.50000000 </v>
   <v>       0.50000000       0.50000000       0.00000000 </v>
   <v>       0.50000000       0.00000000       0.00000000 </v>
   <v>       0.50000000       0.50000000       0.50000000 </v>
   <v>       0.00000000       0.00000000       0.50000000 </v>
   <v>       0.00000000       0.50000000       0.00000000 </v>
  </varray>
 </structure>
</modeling>
