64   
2    

1    
  0.0100000000000000   0.0000000000000000   0.0000000000000000
  -0.1163389900    0.0000000000    0.0000000000
   0.0068932500    0.0000000000    0.0000000000
  -0.0030370500    0.0000000000    0.0000000000
   0.0044175500    0.0000000000    0.0000000000
  -0.0030370500    0.0000000000    0.0000000000
   0.0044175500    0.0000000000    0.0000000000
  -0.0010257200    0.0000000000    0.0000000000
   0.0010446700    0.0000000000    0.0000000000
  -0.0043247500   -0.0000185500   -0.0000185500
   0.0031322400    0.0000022200    0.0000022200
  -0.0043247500    0.0000185500   -0.0000185500
   0.0031322400   -0.0000022200    0.0000022200
  -0.0043247500   -0.0000185500    0.0000185500
   0.0031322400    0.0000022200   -0.0000022200
  -0.0043247500    0.0000185500    0.0000185500
   0.0031322400   -0.0000022200   -0.0000022200
   0.0072474700    0.0000000000   -0.0101453900
   0.0072837500    0.0000000000    0.0102366000
  -0.0001197500    0.0000000000   -0.0011820300
  -0.0001305000    0.0000000000    0.0011894300
   0.0072474700    0.0000000000    0.0101453900
   0.0072837500    0.0000000000   -0.0102366000
  -0.0001197500    0.0000000000    0.0011820300
  -0.0001305000    0.0000000000   -0.0011894300
   0.0072474700   -0.0101453900    0.0000000000
   0.0072837500    0.0102366000    0.0000000000
   0.0072474700    0.0101453900    0.0000000000
   0.0072837500   -0.0102366000    0.0000000000
  -0.0001197500   -0.0011820300    0.0000000000
  -0.0001305000    0.0011894300    0.0000000000
  -0.0001197500    0.0011820300    0.0000000000
  -0.0001305000   -0.0011894300    0.0000000000
   0.0123486000    0.0000000000    0.0000000000
   0.0144826500    0.0000000000    0.0000000000
   0.0004459000    0.0000000000    0.0000000000
   0.0004564100    0.0000000000    0.0000000000
   0.0004459000    0.0000000000    0.0000000000
   0.0004564100    0.0000000000    0.0000000000
  -0.0000008900    0.0000000000    0.0000000000
   0.0000083900    0.0000000000    0.0000000000
  -0.0003602800    0.0026423900    0.0026423900
  -0.0003420100   -0.0026513900   -0.0026513900
  -0.0003602800   -0.0026423900    0.0026423900
  -0.0003420100    0.0026513900   -0.0026513900
  -0.0003602800    0.0026423900   -0.0026423900
  -0.0003420100   -0.0026513900    0.0026513900
  -0.0003602800   -0.0026423900   -0.0026423900
  -0.0003420100    0.0026513900    0.0026513900
   0.0132200400    0.0000000000   -0.0000205300
  -0.0059389500    0.0000000000   -0.0000070600
   0.0012978800    0.0000000000   -0.0000029500
  -0.0014595300    0.0000000000   -0.0000021300
   0.0132200400    0.0000000000    0.0000205300
  -0.0059389500    0.0000000000    0.0000070600
   0.0012978800    0.0000000000    0.0000029500
  -0.0014595300    0.0000000000    0.0000021300
   0.0132200400   -0.0000205300    0.0000000000
  -0.0059389500   -0.0000070600    0.0000000000
   0.0132200400    0.0000205300    0.0000000000
  -0.0059389500    0.0000070600    0.0000000000
   0.0012978800   -0.0000029500    0.0000000000
  -0.0014595300   -0.0000021300    0.0000000000
   0.0012978800    0.0000029500    0.0000000000
  -0.0014595300    0.0000021300    0.0000000000

33   
  0.0100000000000000   0.0000000000000000   0.0000000000000000
   0.0144782900    0.0000000000    0.0000000000
   0.0123383500    0.0000000000    0.0000000000
   0.0004560300    0.0000000000    0.0000000000
   0.0004390700    0.0000000000    0.0000000000
   0.0004560300    0.0000000000    0.0000000000
   0.0004390700    0.0000000000    0.0000000000
   0.0000014000    0.0000000000    0.0000000000
  -0.0000012800    0.0000000000    0.0000000000
  -0.0003479000   -0.0026539500   -0.0026539500
  -0.0003611600    0.0026381900    0.0026381900
  -0.0003479000    0.0026539500   -0.0026539500
  -0.0003611600   -0.0026381900    0.0026381900
  -0.0003479000   -0.0026539500    0.0026539500
  -0.0003611600    0.0026381900   -0.0026381900
  -0.0003479000    0.0026539500    0.0026539500
  -0.0003611600   -0.0026381900   -0.0026381900
   0.0132138300    0.0000000000   -0.0000549800
  -0.0059403700    0.0000000000   -0.0000016600
   0.0012954900    0.0000000000    0.0000086400
  -0.0014632400    0.0000000000    0.0000002200
   0.0132138300    0.0000000000    0.0000549800
  -0.0059403700    0.0000000000    0.0000016600
   0.0012954900    0.0000000000   -0.0000086400
  -0.0014632400    0.0000000000   -0.0000002200
   0.0132138300   -0.0000549800    0.0000000000
  -0.0059403700   -0.0000016600    0.0000000000
   0.0132138300    0.0000549800    0.0000000000
  -0.0059403700    0.0000016600    0.0000000000
   0.0012954900    0.0000086400    0.0000000000
  -0.0014632400    0.0000002200    0.0000000000
   0.0012954900   -0.0000086400    0.0000000000
  -0.0014632400   -0.0000002200    0.0000000000
  -0.1143462400    0.0000000000    0.0000000000
   0.0156118500    0.0000000000    0.0000000000
  -0.0001183000    0.0000000000    0.0000000000
   0.0006668400    0.0000000000    0.0000000000
  -0.0001183000    0.0000000000    0.0000000000
   0.0006668400    0.0000000000    0.0000000000
  -0.0011506100    0.0000000000    0.0000000000
   0.0011447400    0.0000000000    0.0000000000
  -0.0046424500   -0.0000251400   -0.0000251400
   0.0027593300    0.0000003600    0.0000003600
  -0.0046424500    0.0000251400   -0.0000251400
   0.0027593300   -0.0000003600    0.0000003600
  -0.0046424500   -0.0000251400    0.0000251400
   0.0027593300    0.0000003600   -0.0000003600
  -0.0046424500    0.0000251400    0.0000251400
   0.0027593300   -0.0000003600   -0.0000003600
   0.0064526900    0.0000000000    0.0158322500
   0.0064038600    0.0000000000   -0.0156856000
  -0.0000627800    0.0000000000   -0.0002880800
  -0.0000482500    0.0000000000    0.0002851700
   0.0064526900    0.0000000000   -0.0158322500
   0.0064038600    0.0000000000    0.0156856000
  -0.0000627800    0.0000000000    0.0002880800
  -0.0000482500    0.0000000000   -0.0002851700
   0.0064526900    0.0158322500    0.0000000000
   0.0064038600   -0.0156856000    0.0000000000
   0.0064526900   -0.0158322500    0.0000000000
   0.0064038600    0.0156856000    0.0000000000
  -0.0000627800   -0.0002880800    0.0000000000
  -0.0000482500    0.0002851700    0.0000000000
  -0.0000627800    0.0002880800    0.0000000000
  -0.0000482500   -0.0002851700    0.0000000000
