   64   64    1    1
  0.1755761E+02  0.1039637E-08  0.1039637E-08  0.1039637E-08  0.5000000E-15
  1.000000000000000E-004
  CAR 
 unknown system                          
    448      6    268
 
  0.0000000E+00  0.0000000E+00  0.0000000E+00  0.1250000E+00
    1      -37.757695
    2      -37.757186
    3      -37.757186
    4      -37.751303
    5      -37.751302
    6      -37.751255
    7      -37.751060
    8      -37.750278
    9      -37.750253
   10      -37.750253
   11      -37.749739
   12      -37.749445
   13      -37.749445
   14      -37.749435
   15      -37.749435
   16      -37.749385
   17      -37.749378
   18      -37.749133
   19      -37.749133
   20      -37.748798
   21      -37.748793
   22      -37.748704
   23      -37.748704
   24      -37.748493
   25      -37.748493
   26      -37.748460
   27      -37.748460
   28      -37.748360
   29      -37.748300
   30      -37.748300
   31      -37.748168
   32      -37.747983
   33      -37.747684
   34      -37.747684
   35      -37.747561
   36      -37.747488
   37      -37.747448
   38      -37.747430
   39      -37.747295
   40      -37.747295
   41      -37.747117
   42      -37.747080
   43      -37.746962
   44      -37.746962
   45      -37.746930
   46      -37.746929
   47      -37.746924
   48      -37.746924
   49      -37.746916
   50      -37.746916
   51      -37.746900
   52      -37.746900
   53      -37.746815
   54      -37.746808
   55      -37.746808
   56      -37.746715
   57      -37.746702
   58      -37.746667
   59      -37.746214
   60      -37.746214
   61      -37.746107
   62      -37.746107
   63      -37.745916
   64      -37.745801
   65      -37.745659
   66      -37.745659
   67      -37.745475
   68      -37.745461
   69      -37.745461
   70      -37.745433
   71      -37.745433
   72      -37.745115
   73      -37.745111
   74      -37.744943
   75      -37.744943
   76      -37.744934
   77      -37.744933
   78      -37.744897
   79      -37.744897
   80      -37.744697
   81      -37.744695
   82      -37.744690
   83      -37.744668
   84      -37.744584
   85      -37.744584
   86      -37.744546
   87      -37.744545
   88      -37.744344
   89      -37.744344
   90      -37.744274
   91      -37.743792
   92      -37.743452
   93      -37.743452
   94      -37.736791
   95      -37.736791
   96      -37.736277
   97       -9.202896
   98       -8.451006
   99       -8.450353
  100       -8.450349
  101       -8.450349
  102       -8.450348
  103       -8.449698
  104       -7.940955
  105       -7.940181
  106       -7.940181
  107       -7.939082
  108       -7.939072
  109       -7.939072
  110       -7.939072
  111       -7.939070
  112       -7.939062
  113       -7.937996
  114       -7.937996
  115       -7.937214
  116       -7.858613
  117       -7.858595
  118       -7.858579
  119       -7.858579
  120       -7.488063
  121       -7.488011
  122       -7.487993
  123       -7.439279
  124       -7.438497
  125       -7.438492
  126       -7.438492
  127       -7.438473
  128       -7.437650
  129       -1.411097
  130       -1.411097
  131       -1.411094
  132       -1.411094
  133       -0.766893
  134       -0.766893
  135       -0.766890
  136       -0.261261
  137       -0.259753
  138       -0.259753
  139       -0.259533
  140       -0.259514
  141       -0.259506
  142       -0.259505
  143       -0.259505
  144       -0.259483
  145       -0.259259
  146       -0.259259
  147       -0.257764
  148        0.207729
  149        0.207729
  150        0.208656
  151        0.208656
  152        0.208993
  153        0.208993
  154        0.208995
  155        0.209010
  156        0.209331
  157        0.209331
  158        0.210248
  159        0.210248
  160        0.901947
  161        0.902504
  162        0.902504
  163        0.902509
  164        0.902510
  165        0.903064
  166        1.095354
  167        1.096926
  168        1.096926
  169        1.097005
  170        1.097009
  171        1.098379
  172        1.116015
  173        1.116015
  174        1.117877
  175        1.117998
  176        1.117999
  177        1.118000
  178        1.118000
  179        1.118001
  180        1.118122
  181        1.118276
  182        1.120077
  183        1.120077
  184        1.788840
  185        1.788840
  186        1.788844
  187        1.788845
  188        1.788862
  189        1.788862
  190        2.509493
  191        2.509493
  192        2.510933
  193        2.510933
  194        2.511082
  195        2.511106
  196        2.511107
  197        2.511109
  198        2.511278
  199        2.511278
  200        2.512738
  201        2.512738
  202        2.853496
  203        2.854285
  204        2.855071
  205        2.855079
  206        2.855079
  207        2.855132
  208        2.855148
  209        2.855148
  210        2.855192
  211        2.855192
  212        2.855899
  213        2.856740
  214        2.895921
  215        2.895921
  216        2.895926
  217        2.895947
  218        2.895947
  219        2.895971
  220        2.895988
  221        2.896003
  222        3.500226
  223        3.500239
  224        3.500239
  225        6.215346
  226        6.215357
  227        6.215367
  228        7.118024
  229        7.731742
  230        7.731742
  231        7.731747
  232        7.905714
  233        7.905734
  234        7.905734
  235        7.905741
  236        8.447665
  237        8.449061
  238        8.449061
  239        8.449074
  240        8.449084
  241        8.450404
  242        8.723370
  243        8.726020
  244        8.726020
  245        8.726062
  246        8.726074
  247        8.728766
  248        8.974716
  249        8.975547
  250        8.975548
  251        8.975554
  252        8.975554
  253        8.976368
  254        9.082476
  255        9.082536
  256        9.082536
  257        9.082993
  258        9.083215
  259        9.083243
  260        9.083243
  261        9.083254
  262        9.083501
  263        9.083958
  264        9.083958
  265        9.084007
  266       10.332800
  267       10.332808
  268       10.332818
 
  0.5000000E+00  0.0000000E+00  0.0000000E+00  0.1250000E+00
    1      -37.757675
    2      -37.757185
    3      -37.757185
    4      -37.751095
    5      -37.751095
    6      -37.750694
    7      -37.750664
    8      -37.750183
    9      -37.750057
   10      -37.749944
   11      -37.749944
   12      -37.749892
   13      -37.749784
   14      -37.749542
   15      -37.749542
   16      -37.749436
   17      -37.749436
   18      -37.749369
   19      -37.749369
   20      -37.749293
   21      -37.749293
   22      -37.749283
   23      -37.749254
   24      -37.749065
   25      -37.748726
   26      -37.748721
   27      -37.748378
   28      -37.748378
   29      -37.748273
   30      -37.748132
   31      -37.747986
   32      -37.747886
   33      -37.747810
   34      -37.747791
   35      -37.747791
   36      -37.747730
   37      -37.747730
   38      -37.747700
   39      -37.747698
   40      -37.747465
   41      -37.747465
   42      -37.747267
   43      -37.747267
   44      -37.747129
   45      -37.746760
   46      -37.746755
   47      -37.746741
   48      -37.746741
   49      -37.746432
   50      -37.746432
   51      -37.746357
   52      -37.746293
   53      -37.746293
   54      -37.746203
   55      -37.746201
   56      -37.746126
   57      -37.746076
   58      -37.745939
   59      -37.745939
   60      -37.745937
   61      -37.745922
   62      -37.745908
   63      -37.745908
   64      -37.745894
   65      -37.745894
   66      -37.745639
   67      -37.745639
   68      -37.745479
   69      -37.745345
   70      -37.745344
   71      -37.745307
   72      -37.745179
   73      -37.745173
   74      -37.744967
   75      -37.744911
   76      -37.744910
   77      -37.744906
   78      -37.744906
   79      -37.744858
   80      -37.744783
   81      -37.744783
   82      -37.744756
   83      -37.744755
   84      -37.744599
   85      -37.744599
   86      -37.744458
   87      -37.744458
   88      -37.744392
   89      -37.744392
   90      -37.744218
   91      -37.744142
   92      -37.743502
   93      -37.743501
   94      -37.736778
   95      -37.736778
   96      -37.736235
   97       -8.997856
   98       -8.996991
   99       -8.302646
  100       -8.302623
  101       -8.302623
  102       -8.302038
  103       -8.301585
  104       -8.300982
  105       -8.300982
  106       -8.300956
  107       -7.901163
  108       -7.901163
  109       -7.899669
  110       -7.899518
  111       -7.899492
  112       -7.899352
  113       -7.897847
  114       -7.897847
  115       -7.802968
  116       -7.800305
  117       -7.582711
  118       -7.581661
  119       -7.581661
  120       -7.581652
  121       -7.579994
  122       -7.579972
  123       -7.579972
  124       -7.578893
  125       -7.465165
  126       -7.463519
  127       -7.463409
  128       -7.461754
  129       -0.980275
  130       -0.980148
  131       -0.979157
  132       -0.979157
  133       -0.978999
  134       -0.978999
  135       -0.978013
  136       -0.977888
  137       -0.513441
  138       -0.513441
  139       -0.512679
  140       -0.512679
  141       -0.298071
  142       -0.296079
  143       -0.272478
  144       -0.270790
  145       -0.270790
  146       -0.270538
  147       -0.270312
  148       -0.270062
  149       -0.270062
  150       -0.268250
  151        0.375182
  152        0.375985
  153        0.375995
  154        0.375995
  155        0.376997
  156        0.376997
  157        0.377012
  158        0.377822
  159        0.446758
  160        0.446773
  161        0.447466
  162        0.447466
  163        0.447564
  164        0.447564
  165        0.448257
  166        0.448272
  167        1.202519
  168        1.202519
  169        1.205485
  170        1.205485
  171        1.405893
  172        1.406900
  173        1.407343
  174        1.408369
  175        1.982008
  176        1.982008
  177        1.982888
  178        1.982888
  179        2.010108
  180        2.010108
  181        2.011606
  182        2.011687
  183        2.013064
  184        2.013144
  185        2.014392
  186        2.014392
  187        2.016743
  188        2.019025
  189        2.019025
  190        2.019092
  191        2.019594
  192        2.019937
  193        2.019937
  194        2.021787
  195        2.111277
  196        2.111277
  197        2.111693
  198        2.112657
  199        2.113271
  200        2.114374
  201        2.114723
  202        2.114723
  203        2.467958
  204        2.469241
  205        2.807708
  206        2.807770
  207        2.807770
  208        2.808326
  209        2.808790
  210        2.809351
  211        2.809351
  212        2.809422
  213        2.873562
  214        2.873771
  215        2.875321
  216        2.875321
  217        2.875382
  218        2.875382
  219        2.876913
  220        2.877126
  221        3.166576
  222        3.166576
  223        3.169342
  224        3.169342
  225        6.855922
  226        6.857582
  227        7.244450
  228        7.247075
  229        7.247508
  230        7.250109
  231        8.048425
  232        8.049427
  233        8.277954
  234        8.280764
  235        8.686929
  236        8.686929
  237        8.687317
  238        8.688193
  239        8.689497
  240        8.689993
  241        8.690593
  242        8.690593
  243        8.717605
  244        8.717605
  245        8.718142
  246        8.718879
  247        8.718990
  248        8.720009
  249        8.720351
  250        8.720351
  251        8.850056
  252        8.850056
  253        8.852667
  254        8.852667
  255        9.238838
  256        9.242101
  257        9.242101
  258        9.242836
  259        9.243030
  260        9.243746
  261        9.243746
  262        9.246982
  263        9.861254
  264        9.861865
  265        9.863324
  266        9.864500
  267        9.866041
  268        9.874103
 
  0.0000000E+00  0.5000000E+00  0.0000000E+00  0.2500000E+00
    1      -37.757694
    2      -37.757182
    3      -37.757163
    4      -37.750821
    5      -37.750787
    6      -37.750596
    7      -37.750583
    8      -37.750565
    9      -37.750509
   10      -37.750508
   11      -37.750306
   12      -37.750097
   13      -37.750073
   14      -37.750006
   15      -37.749507
   16      -37.749304
   17      -37.749238
   18      -37.749108
   19      -37.749089
   20      -37.748997
   21      -37.748889
   22      -37.748778
   23      -37.748703
   24      -37.748674
   25      -37.748556
   26      -37.748430
   27      -37.748342
   28      -37.748337
   29      -37.748135
   30      -37.748124
   31      -37.748119
   32      -37.748103
   33      -37.748096
   34      -37.747975
   35      -37.747961
   36      -37.747954
   37      -37.747855
   38      -37.747784
   39      -37.747584
   40      -37.747564
   41      -37.747539
   42      -37.747399
   43      -37.747382
   44      -37.747105
   45      -37.746969
   46      -37.746810
   47      -37.746803
   48      -37.746792
   49      -37.746591
   50      -37.746566
   51      -37.746501
   52      -37.746461
   53      -37.746418
   54      -37.746105
   55      -37.746072
   56      -37.746060
   57      -37.746058
   58      -37.746026
   59      -37.745799
   60      -37.745798
   61      -37.745760
   62      -37.745700
   63      -37.745628
   64      -37.745581
   65      -37.745580
   66      -37.745576
   67      -37.745546
   68      -37.745523
   69      -37.745504
   70      -37.745469
   71      -37.745451
   72      -37.745341
   73      -37.745295
   74      -37.745268
   75      -37.745255
   76      -37.745121
   77      -37.744959
   78      -37.744907
   79      -37.744874
   80      -37.744868
   81      -37.744819
   82      -37.744710
   83      -37.744623
   84      -37.744623
   85      -37.744609
   86      -37.744361
   87      -37.744325
   88      -37.744095
   89      -37.743981
   90      -37.743965
   91      -37.743875
   92      -37.743865
   93      -37.743846
   94      -37.736779
   95      -37.736750
   96      -37.736265
   97       -8.997426
   98       -8.997421
   99       -8.303113
  100       -8.302352
  101       -8.301810
  102       -8.301805
  103       -8.301800
  104       -8.301800
  105       -8.301252
  106       -8.300512
  107       -7.900632
  108       -7.899536
  109       -7.899515
  110       -7.899505
  111       -7.899503
  112       -7.899498
  113       -7.899477
  114       -7.898396
  115       -7.801638
  116       -7.801638
  117       -7.581385
  118       -7.581238
  119       -7.580819
  120       -7.580819
  121       -7.580808
  122       -7.580800
  123       -7.580416
  124       -7.580252
  125       -7.463465
  126       -7.463459
  127       -7.463457
  128       -7.463425
  129       -0.980062
  130       -0.979438
  131       -0.979243
  132       -0.979085
  133       -0.979078
  134       -0.978915
  135       -0.978721
  136       -0.978109
  137       -0.513062
  138       -0.513062
  139       -0.513058
  140       -0.513054
  141       -0.297047
  142       -0.297025
  143       -0.271209
  144       -0.270837
  145       -0.270429
  146       -0.270424
  147       -0.270423
  148       -0.270420
  149       -0.269982
  150       -0.269627
  151        0.375582
  152        0.376188
  153        0.376473
  154        0.376495
  155        0.376497
  156        0.376497
  157        0.376814
  158        0.377398
  159        0.445427
  160        0.447449
  161        0.447515
  162        0.447517
  163        0.447518
  164        0.447550
  165        0.447583
  166        0.449619
  167        1.203986
  168        1.203988
  169        1.203995
  170        1.203998
  171        1.407115
  172        1.407129
  173        1.407133
  174        1.407150
  175        1.982398
  176        1.982404
  177        1.982451
  178        1.982477
  179        2.010434
  180        2.012029
  181        2.012062
  182        2.012329
  183        2.012365
  184        2.012366
  185        2.012419
  186        2.014158
  187        2.018512
  188        2.018928
  189        2.019348
  190        2.019349
  191        2.019386
  192        2.019596
  193        2.020063
  194        2.020500
  195        2.111040
  196        2.112717
  197        2.112762
  198        2.112951
  199        2.112986
  200        2.113167
  201        2.113222
  202        2.114955
  203        2.468598
  204        2.468607
  205        2.807122
  206        2.807576
  207        2.808543
  208        2.808557
  209        2.808560
  210        2.808562
  211        2.809542
  212        2.810055
  213        2.874222
  214        2.875336
  215        2.875341
  216        2.875342
  217        2.875343
  218        2.875346
  219        2.875382
  220        2.876500
  221        3.167951
  222        3.167954
  223        3.167956
  224        3.167971
  225        6.856738
  226        6.856744
  227        7.247275
  228        7.247278
  229        7.247288
  230        7.247297
  231        8.048903
  232        8.048925
  233        8.279338
  234        8.279364
  235        8.686484
  236        8.688594
  237        8.688618
  238        8.688840
  239        8.688842
  240        8.688849
  241        8.689027
  242        8.690866
  243        8.717743
  244        8.717754
  245        8.717934
  246        8.718787
  247        8.719077
  248        8.720121
  249        8.720132
  250        8.720324
  251        8.851353
  252        8.851365
  253        8.851371
  254        8.851381
  255        9.241223
  256        9.242608
  257        9.242926
  258        9.242927
  259        9.242928
  260        9.242953
  261        9.243248
  262        9.244620
  263        9.861874
  264        9.862144
  265        9.862834
  266        9.864360
  267        9.871981
  268        9.884641
 
  0.5000000E+00  0.5000000E+00  0.0000000E+00  0.2500000E+00
    1      -37.757651
    2      -37.757144
    3      -37.757137
    4      -37.750631
    5      -37.750619
    6      -37.750523
    7      -37.750500
    8      -37.750259
    9      -37.750251
   10      -37.750224
   11      -37.750191
   12      -37.749977
   13      -37.749924
   14      -37.749829
   15      -37.749513
   16      -37.749450
   17      -37.749448
   18      -37.749336
   19      -37.749249
   20      -37.749214
   21      -37.749203
   22      -37.749037
   23      -37.748903
   24      -37.748826
   25      -37.748817
   26      -37.748807
   27      -37.748580
   28      -37.748551
   29      -37.748527
   30      -37.748511
   31      -37.748211
   32      -37.748018
   33      -37.748006
   34      -37.747803
   35      -37.747729
   36      -37.747422
   37      -37.747267
   38      -37.747199
   39      -37.747158
   40      -37.747045
   41      -37.746934
   42      -37.746924
   43      -37.746857
   44      -37.746838
   45      -37.746808
   46      -37.746808
   47      -37.746608
   48      -37.746523
   49      -37.746407
   50      -37.746403
   51      -37.746394
   52      -37.746369
   53      -37.746328
   54      -37.746321
   55      -37.746281
   56      -37.746196
   57      -37.746157
   58      -37.746114
   59      -37.746109
   60      -37.746040
   61      -37.745991
   62      -37.745896
   63      -37.745727
   64      -37.745686
   65      -37.745567
   66      -37.745539
   67      -37.745508
   68      -37.745496
   69      -37.745456
   70      -37.745454
   71      -37.745382
   72      -37.745335
   73      -37.745331
   74      -37.745312
   75      -37.745298
   76      -37.745185
   77      -37.745109
   78      -37.745067
   79      -37.745041
   80      -37.744870
   81      -37.744837
   82      -37.744777
   83      -37.744673
   84      -37.744654
   85      -37.744602
   86      -37.744406
   87      -37.744321
   88      -37.743968
   89      -37.743919
   90      -37.743917
   91      -37.743891
   92      -37.743801
   93      -37.743748
   94      -37.736759
   95      -37.736749
   96      -37.736234
   97       -8.805594
   98       -8.805419
   99       -8.804673
  100       -8.804486
  101       -8.180550
  102       -8.180016
  103       -8.179486
  104       -8.179216
  105       -8.179186
  106       -8.178896
  107       -8.178369
  108       -8.177840
  109       -7.730327
  110       -7.729192
  111       -7.729018
  112       -7.728455
  113       -7.727906
  114       -7.727352
  115       -7.727190
  116       -7.726080
  117       -7.662637
  118       -7.662578
  119       -7.662002
  120       -7.661444
  121       -7.660895
  122       -7.660327
  123       -7.659755
  124       -7.659620
  125       -7.486791
  126       -7.486111
  127       -7.484976
  128       -7.484282
  129       -0.878977
  130       -0.878917
  131       -0.878799
  132       -0.878567
  133       -0.878212
  134       -0.877996
  135       -0.877864
  136       -0.877807
  137       -0.322692
  138       -0.321309
  139       -0.321227
  140       -0.320838
  141       -0.320583
  142       -0.320172
  143       -0.320134
  144       -0.318958
  145       -0.316030
  146       -0.315643
  147       -0.315484
  148       -0.315444
  149       -0.314375
  150       -0.314331
  151       -0.314056
  152       -0.313469
  153       -0.263265
  154       -0.262958
  155       -0.262492
  156       -0.262189
  157        0.255353
  158        0.255696
  159        0.257138
  160        0.257488
  161        1.315167
  162        1.316064
  163        1.316149
  164        1.316193
  165        1.316780
  166        1.316782
  167        1.316914
  168        1.317797
  169        1.415977
  170        1.418099
  171        1.418139
  172        1.418553
  173        1.419153
  174        1.419561
  175        1.419605
  176        1.421774
  177        1.518043
  178        1.518509
  179        1.519050
  180        1.519530
  181        1.876873
  182        1.878123
  183        1.878723
  184        1.878795
  185        1.879524
  186        1.879589
  187        1.880193
  188        1.881413
  189        2.112549
  190        2.112665
  191        2.113302
  192        2.113396
  193        2.323312
  194        2.324734
  195        2.324945
  196        2.325134
  197        2.325679
  198        2.325878
  199        2.326084
  200        2.327492
  201        2.562506
  202        2.562943
  203        2.563200
  204        2.563363
  205        2.564242
  206        2.564384
  207        2.564648
  208        2.565054
  209        2.691433
  210        2.691492
  211        2.691561
  212        2.691984
  213        2.692179
  214        2.692537
  215        2.692600
  216        2.692674
  217        2.768302
  218        2.770005
  219        2.771100
  220        2.772860
  221        3.389292
  222        3.389525
  223        3.390182
  224        3.390400
  225        7.325944
  226        7.326208
  227        7.327618
  228        7.327867
  229        7.789238
  230        7.791633
  231        7.791843
  232        7.791874
  233        7.792634
  234        7.792657
  235        7.792847
  236        7.795263
  237        8.667459
  238        8.668768
  239        8.668951
  240        8.669178
  241        8.669358
  242        8.669538
  243        8.669647
  244        8.671028
  245        8.788297
  246        8.789406
  247        8.791807
  248        8.792861
  249        9.010705
  250        9.012841
  251        9.012944
  252        9.013209
  253        9.013655
  254        9.013901
  255        9.014023
  256        9.015932
  257        9.117257
  258        9.120016
  259        9.120289
  260        9.120583
  261        9.120896
  262        9.121195
  263        9.121473
  264        9.124422
  265        9.494773
  266        9.495104
  267        9.495516
  268        9.495978
 
  0.0000000E+00  0.5000000E+00  0.5000000E+00  0.1250000E+00
    1      -37.757656
    2      -37.757137
    3      -37.757137
    4      -37.750922
    5      -37.750848
    6      -37.750276
    7      -37.750276
    8      -37.750172
    9      -37.750012
   10      -37.749964
   11      -37.749964
   12      -37.749960
   13      -37.749960
   14      -37.749827
   15      -37.749755
   16      -37.749681
   17      -37.749519
   18      -37.749514
   19      -37.749514
   20      -37.749514
   21      -37.749001
   22      -37.748860
   23      -37.748829
   24      -37.748808
   25      -37.748808
   26      -37.748738
   27      -37.748738
   28      -37.748529
   29      -37.748465
   30      -37.748465
   31      -37.748044
   32      -37.748031
   33      -37.747918
   34      -37.747662
   35      -37.747662
   36      -37.747510
   37      -37.747464
   38      -37.747240
   39      -37.747240
   40      -37.746972
   41      -37.746800
   42      -37.746775
   43      -37.746775
   44      -37.746775
   45      -37.746768
   46      -37.746748
   47      -37.746744
   48      -37.746744
   49      -37.746734
   50      -37.746722
   51      -37.746686
   52      -37.746686
   53      -37.746408
   54      -37.746402
   55      -37.746343
   56      -37.746343
   57      -37.746116
   58      -37.746106
   59      -37.746106
   60      -37.746102
   61      -37.745709
   62      -37.745599
   63      -37.745599
   64      -37.745423
   65      -37.745423
   66      -37.745357
   67      -37.745351
   68      -37.745346
   69      -37.745261
   70      -37.745261
   71      -37.745236
   72      -37.745221
   73      -37.745184
   74      -37.745112
   75      -37.745112
   76      -37.745112
   77      -37.745109
   78      -37.745088
   79      -37.745069
   80      -37.745004
   81      -37.745004
   82      -37.744922
   83      -37.744922
   84      -37.744742
   85      -37.744608
   86      -37.744520
   87      -37.744458
   88      -37.744236
   89      -37.744236
   90      -37.744159
   91      -37.744159
   92      -37.743465
   93      -37.743388
   94      -37.736748
   95      -37.736748
   96      -37.736244
   97       -8.805049
   98       -8.805042
   99       -8.805042
  100       -8.805039
  101       -8.181203
  102       -8.179213
  103       -8.179213
  104       -8.179192
  105       -8.179189
  106       -8.179171
  107       -8.179171
  108       -8.177211
  109       -7.728298
  110       -7.728220
  111       -7.728220
  112       -7.728184
  113       -7.728180
  114       -7.728180
  115       -7.728180
  116       -7.728178
  117       -7.661172
  118       -7.661172
  119       -7.661170
  120       -7.661164
  121       -7.661163
  122       -7.661128
  123       -7.661128
  124       -7.661053
  125       -7.485546
  126       -7.485540
  127       -7.485540
  128       -7.485517
  129       -0.878993
  130       -0.878993
  131       -0.878401
  132       -0.878393
  133       -0.878391
  134       -0.878390
  135       -0.877788
  136       -0.877788
  137       -0.320839
  138       -0.320740
  139       -0.320714
  140       -0.320714
  141       -0.320687
  142       -0.320687
  143       -0.320687
  144       -0.320687
  145       -0.316454
  146       -0.315097
  147       -0.315097
  148       -0.314909
  149       -0.314851
  150       -0.314696
  151       -0.314696
  152       -0.313345
  153       -0.262727
  154       -0.262721
  155       -0.262721
  156       -0.262577
  157        0.256406
  158        0.256420
  159        0.256421
  160        0.256421
  161        1.315082
  162        1.315082
  163        1.316468
  164        1.316485
  165        1.316487
  166        1.316490
  167        1.317854
  168        1.317854
  169        1.418844
  170        1.418844
  171        1.418847
  172        1.418852
  173        1.418853
  174        1.418853
  175        1.418853
  176        1.418857
  177        1.518785
  178        1.518785
  179        1.518811
  180        1.518811
  181        1.879145
  182        1.879158
  183        1.879158
  184        1.879160
  185        1.879162
  186        1.879163
  187        1.879198
  188        1.879198
  189        2.112966
  190        2.112966
  191        2.112968
  192        2.112968
  193        2.324993
  194        2.324993
  195        2.325408
  196        2.325411
  197        2.325412
  198        2.325412
  199        2.325840
  200        2.325840
  201        2.562446
  202        2.563050
  203        2.563050
  204        2.563770
  205        2.563816
  206        2.564531
  207        2.564531
  208        2.565135
  209        2.691040
  210        2.691040
  211        2.692012
  212        2.692042
  213        2.692046
  214        2.692075
  215        2.693048
  216        2.693048
  217        2.770552
  218        2.770571
  219        2.770586
  220        2.770586
  221        3.389847
  222        3.389848
  223        3.389864
  224        3.389864
  225        7.326912
  226        7.326912
  227        7.326918
  228        7.326929
  229        7.792164
  230        7.792241
  231        7.792241
  232        7.792250
  233        7.792250
  234        7.792251
  235        7.792251
  236        7.792265
  237        8.668643
  238        8.669025
  239        8.669246
  240        8.669246
  241        8.669271
  242        8.669271
  243        8.669451
  244        8.669896
  245        8.790570
  246        8.790590
  247        8.790590
  248        8.790596
  249        9.013191
  250        9.013191
  251        9.013431
  252        9.013433
  253        9.013447
  254        9.013485
  255        9.013669
  256        9.013669
  257        9.120649
  258        9.120708
  259        9.120708
  260        9.120738
  261        9.120742
  262        9.120742
  263        9.120743
  264        9.120745
  265        9.494354
  266        9.495027
  267        9.495630
  268        9.496218
 