       N       E                     dE             d eps       ncg     rms          rms(c)
DAV:   1     0.428654804102E+04    0.42865E+04   -0.26667E+05  3888   0.166E+03
DAV:   2     0.108667170891E+03   -0.41779E+04   -0.40248E+04  3792   0.429E+02
DAV:   3    -0.282312043336E+03   -0.39098E+03   -0.38720E+03  3904   0.119E+02
DAV:   4    -0.300926694715E+03   -0.18615E+02   -0.18550E+02  3648   0.219E+01
DAV:   5    -0.301750219855E+03   -0.82353E+00   -0.82291E+00  4008   0.469E+00    0.244E+01
DAV:   6    -0.291171354334E+03    0.10579E+02   -0.21408E+01  3580   0.702E+00    0.176E+01
DAV:   7    -0.289897330548E+03    0.12740E+01   -0.78728E+00  3744   0.399E+00    0.894E+00
DAV:   8    -0.289821024290E+03    0.76306E-01   -0.69931E-01  3540   0.170E+00    0.240E+00
DAV:   9    -0.289815809726E+03    0.52146E-02   -0.26554E-02  3640   0.340E-01    0.519E-01
DAV:  10    -0.289816250165E+03   -0.44044E-03   -0.67322E-03  3736   0.135E-01    0.226E-01
DAV:  11    -0.289815982626E+03    0.26754E-03   -0.10283E-03  3528   0.626E-02    0.238E-02
DAV:  12    -0.289815984282E+03   -0.16554E-05   -0.32463E-05  3744   0.113E-02    0.198E-02
DAV:  13    -0.289815986657E+03   -0.23751E-05   -0.77535E-06  3560   0.548E-03    0.323E-03
DAV:  14    -0.289815986409E+03    0.24756E-06   -0.16236E-06  3600   0.246E-03    0.283E-03
DAV:  15    -0.289815986156E+03    0.25376E-06   -0.62629E-08  3056   0.551E-04    0.375E-03
DAV:  16    -0.289815986280E+03   -0.12482E-06   -0.37124E-08  2896   0.324E-04    0.151E-03
DAV:  17    -0.289815986294E+03   -0.13228E-07   -0.21945E-08  2440   0.300E-04    0.127E-03
DAV:  18    -0.289815986359E+03   -0.65738E-07   -0.29051E-09  1968   0.126E-04    0.402E-04
DAV:  19    -0.289815986394E+03   -0.34306E-07   -0.10910E-09  1944   0.616E-05    0.168E-04
DAV:  20    -0.289815986380E+03    0.13504E-07   -0.40240E-10  1928   0.340E-05    0.144E-04
DAV:  21    -0.289815986367E+03    0.12937E-07   -0.19640E-10  1944   0.154E-05    0.411E-05
DAV:  22    -0.289815986364E+03    0.32160E-08   -0.17313E-10  1920   0.840E-06
   1 F= -.28981599E+03 E0= -.28981599E+03  d E =-.815348E-57
