64   
2    

1    
  0.0100000000000000   0.0000000000000000   0.0000000000000000
  -0.0467705600    0.0000000000    0.0000000000
   0.0108556400    0.0000000000    0.0000000000
   0.0012565800    0.0000000000    0.0000000000
  -0.0006725500    0.0000000000    0.0000000000
   0.0012565800    0.0000000000    0.0000000000
  -0.0006725500    0.0000000000    0.0000000000
  -0.0004916400    0.0000000000    0.0000000000
   0.0004799200    0.0000000000    0.0000000000
  -0.0009831700   -0.0000053800   -0.0000053800
   0.0007303300    0.0000011200    0.0000011200
  -0.0009831700    0.0000053800   -0.0000053800
   0.0007303300   -0.0000011200    0.0000011200
  -0.0009831700   -0.0000053800    0.0000053800
   0.0007303300    0.0000011200   -0.0000011200
  -0.0009831700    0.0000053800    0.0000053800
   0.0007303300   -0.0000011200   -0.0000011200
   0.0008798800    0.0000000000    0.0061283200
   0.0008783600    0.0000000000   -0.0060840900
  -0.0000134300    0.0000000000   -0.0005145700
  -0.0000102500    0.0000000000    0.0005123100
   0.0008798800    0.0000000000   -0.0061283200
   0.0008783600    0.0000000000    0.0060840900
  -0.0000134300    0.0000000000    0.0005145700
  -0.0000102500    0.0000000000   -0.0005123100
   0.0008798800    0.0061283200    0.0000000000
   0.0008783600   -0.0060840900    0.0000000000
   0.0008798800   -0.0061283200    0.0000000000
   0.0008783600    0.0060840900    0.0000000000
  -0.0000134300   -0.0005145700    0.0000000000
  -0.0000102500    0.0005123100    0.0000000000
  -0.0000134300    0.0005145700    0.0000000000
  -0.0000102500   -0.0005123100    0.0000000000
   0.0134383200    0.0000000000    0.0000000000
   0.0123390900    0.0000000000    0.0000000000
   0.0004615000    0.0000000000    0.0000000000
   0.0004522900    0.0000000000    0.0000000000
   0.0004615000    0.0000000000    0.0000000000
   0.0004522900    0.0000000000    0.0000000000
  -0.0000066000    0.0000000000    0.0000000000
  -0.0000101700    0.0000000000    0.0000000000
  -0.0000163900   -0.0009609700   -0.0009609700
  -0.0000236200    0.0009539600    0.0009539600
  -0.0000163900    0.0009609700   -0.0009609700
  -0.0000236200   -0.0009539600    0.0009539600
  -0.0000163900   -0.0009609700    0.0009609700
  -0.0000236200    0.0009539600   -0.0009539600
  -0.0000163900    0.0009609700    0.0009609700
  -0.0000236200   -0.0009539600   -0.0009539600
   0.0030619900    0.0000000000   -0.0000417300
  -0.0026526800    0.0000000000   -0.0000022900
   0.0003611600    0.0000000000    0.0000043600
  -0.0004196100    0.0000000000    0.0000001200
   0.0030619900    0.0000000000    0.0000417300
  -0.0026526800    0.0000000000    0.0000022900
   0.0003611600    0.0000000000   -0.0000043600
  -0.0004196100    0.0000000000   -0.0000001200
   0.0030619900   -0.0000417300    0.0000000000
  -0.0026526800   -0.0000022900    0.0000000000
   0.0030619900    0.0000417300    0.0000000000
  -0.0026526800    0.0000022900    0.0000000000
   0.0003611600    0.0000043600    0.0000000000
  -0.0004196100    0.0000001200    0.0000000000
   0.0003611600   -0.0000043600    0.0000000000
  -0.0004196100   -0.0000001200    0.0000000000

33   
  0.0100000000000000   0.0000000000000000   0.0000000000000000
   0.0123237900    0.0000000000    0.0000000000
   0.0134585200    0.0000000000    0.0000000000
   0.0004588800    0.0000000000    0.0000000000
   0.0004614300    0.0000000000    0.0000000000
   0.0004588800    0.0000000000    0.0000000000
   0.0004614300    0.0000000000    0.0000000000
  -0.0000066400    0.0000000000    0.0000000000
  -0.0000059700    0.0000000000    0.0000000000
  -0.0000188400    0.0009577300    0.0009577300
  -0.0000163800   -0.0009569900   -0.0009569900
  -0.0000188400   -0.0009577300    0.0009577300
  -0.0000163800    0.0009569900   -0.0009569900
  -0.0000188400    0.0009577300   -0.0009577300
  -0.0000163800   -0.0009569900    0.0009569900
  -0.0000188400   -0.0009577300   -0.0009577300
  -0.0000163800    0.0009569900    0.0009569900
   0.0030641500    0.0000000000   -0.0000334000
  -0.0026493900    0.0000000000    0.0000003200
   0.0003643100    0.0000000000   -0.0000004500
  -0.0004174000    0.0000000000   -0.0000004700
   0.0030641500    0.0000000000    0.0000334000
  -0.0026493900    0.0000000000   -0.0000003200
   0.0003643100    0.0000000000    0.0000004500
  -0.0004174000    0.0000000000    0.0000004700
   0.0030641500   -0.0000334000    0.0000000000
  -0.0026493900    0.0000003200    0.0000000000
   0.0030641500    0.0000334000    0.0000000000
  -0.0026493900   -0.0000003200    0.0000000000
   0.0003643100   -0.0000004500    0.0000000000
  -0.0004174000   -0.0000004700    0.0000000000
   0.0003643100    0.0000004500    0.0000000000
  -0.0004174000    0.0000004700    0.0000000000
  -0.0627108600    0.0000000000    0.0000000000
   0.0022387600    0.0000000000    0.0000000000
  -0.0012546000    0.0000000000    0.0000000000
   0.0028831400    0.0000000000    0.0000000000
  -0.0012546000    0.0000000000    0.0000000000
   0.0028831400    0.0000000000    0.0000000000
  -0.0004961300    0.0000000000    0.0000000000
   0.0004859500    0.0000000000    0.0000000000
  -0.0014472300   -0.0000033100   -0.0000033100
   0.0011037600   -0.0000003300   -0.0000003300
  -0.0014472300    0.0000033100   -0.0000033100
   0.0011037600    0.0000003300   -0.0000003300
  -0.0014472300   -0.0000033100    0.0000033100
   0.0011037600   -0.0000003300    0.0000003300
  -0.0014472300    0.0000033100    0.0000033100
   0.0011037600    0.0000003300    0.0000003300
   0.0037548500    0.0000000000   -0.0057380100
   0.0037671500    0.0000000000    0.0057785800
  -0.0000499600    0.0000000000   -0.0005505600
  -0.0000512900    0.0000000000    0.0005524700
   0.0037548500    0.0000000000    0.0057380100
   0.0037671500    0.0000000000   -0.0057785800
  -0.0000499600    0.0000000000    0.0005505600
  -0.0000512900    0.0000000000   -0.0005524700
   0.0037548500   -0.0057380100    0.0000000000
   0.0037671500    0.0057785800    0.0000000000
   0.0037548500    0.0057380100    0.0000000000
   0.0037671500   -0.0057785800    0.0000000000
  -0.0000499600   -0.0005505600    0.0000000000
  -0.0000512900    0.0005524700    0.0000000000
  -0.0000499600    0.0005505600    0.0000000000
  -0.0000512900   -0.0005524700    0.0000000000
