   8   8   0   0
  0.1773144E+02  0.5215285E-09  0.5215285E-09  0.5215285E-09  0.5000000E-15
  1.000000000000000E-004
  CAR 
 unknown system                          
     13.72667798    -40.31410762  301      3.50396270      1.00000000
    -40.314  0.0000E+00  0.0000E+00
    -40.134  0.0000E+00  0.0000E+00
    -39.954  0.0000E+00  0.0000E+00
    -39.774  0.0000E+00  0.0000E+00
    -39.594  0.0000E+00  0.0000E+00
    -39.413  0.0000E+00  0.0000E+00
    -39.233  0.0000E+00  0.0000E+00
    -39.053  0.0000E+00  0.0000E+00
    -38.873  0.0000E+00  0.0000E+00
    -38.693  0.0000E+00  0.0000E+00
    -38.513  0.0000E+00  0.0000E+00
    -38.333  0.0000E+00  0.0000E+00
    -38.152  0.0000E+00  0.0000E+00
    -37.972  0.0000E+00  0.0000E+00
    -37.792  0.6662E+01  0.1200E+01
    -37.612  0.0000E+00  0.1200E+01
    -37.432  0.0000E+00  0.1200E+01
    -37.252  0.0000E+00  0.1200E+01
    -37.072  0.0000E+00  0.1200E+01
    -36.892  0.0000E+00  0.1200E+01
    -36.711  0.0000E+00  0.1200E+01
    -36.531  0.0000E+00  0.1200E+01
    -36.351  0.0000E+00  0.1200E+01
    -36.171  0.0000E+00  0.1200E+01
    -35.991  0.0000E+00  0.1200E+01
    -35.811  0.0000E+00  0.1200E+01
    -35.631  0.0000E+00  0.1200E+01
    -35.450  0.0000E+00  0.1200E+01
    -35.270  0.0000E+00  0.1200E+01
    -35.090  0.0000E+00  0.1200E+01
    -34.910  0.0000E+00  0.1200E+01
    -34.730  0.0000E+00  0.1200E+01
    -34.550  0.0000E+00  0.1200E+01
    -34.370  0.0000E+00  0.1200E+01
    -34.189  0.0000E+00  0.1200E+01
    -34.009  0.0000E+00  0.1200E+01
    -33.829  0.0000E+00  0.1200E+01
    -33.649  0.0000E+00  0.1200E+01
    -33.469  0.0000E+00  0.1200E+01
    -33.289  0.0000E+00  0.1200E+01
    -33.109  0.0000E+00  0.1200E+01
    -32.929  0.0000E+00  0.1200E+01
    -32.748  0.0000E+00  0.1200E+01
    -32.568  0.0000E+00  0.1200E+01
    -32.388  0.0000E+00  0.1200E+01
    -32.208  0.0000E+00  0.1200E+01
    -32.028  0.0000E+00  0.1200E+01
    -31.848  0.0000E+00  0.1200E+01
    -31.668  0.0000E+00  0.1200E+01
    -31.487  0.0000E+00  0.1200E+01
    -31.307  0.0000E+00  0.1200E+01
    -31.127  0.0000E+00  0.1200E+01
    -30.947  0.0000E+00  0.1200E+01
    -30.767  0.0000E+00  0.1200E+01
    -30.587  0.0000E+00  0.1200E+01
    -30.407  0.0000E+00  0.1200E+01
    -30.226  0.0000E+00  0.1200E+01
    -30.046  0.0000E+00  0.1200E+01
    -29.866  0.0000E+00  0.1200E+01
    -29.686  0.0000E+00  0.1200E+01
    -29.506  0.0000E+00  0.1200E+01
    -29.326  0.0000E+00  0.1200E+01
    -29.146  0.0000E+00  0.1200E+01
    -28.966  0.0000E+00  0.1200E+01
    -28.785  0.0000E+00  0.1200E+01
    -28.605  0.0000E+00  0.1200E+01
    -28.425  0.0000E+00  0.1200E+01
    -28.245  0.0000E+00  0.1200E+01
    -28.065  0.0000E+00  0.1200E+01
    -27.885  0.0000E+00  0.1200E+01
    -27.705  0.0000E+00  0.1200E+01
    -27.524  0.0000E+00  0.1200E+01
    -27.344  0.0000E+00  0.1200E+01
    -27.164  0.0000E+00  0.1200E+01
    -26.984  0.0000E+00  0.1200E+01
    -26.804  0.0000E+00  0.1200E+01
    -26.624  0.0000E+00  0.1200E+01
    -26.444  0.0000E+00  0.1200E+01
    -26.264  0.0000E+00  0.1200E+01
    -26.083  0.0000E+00  0.1200E+01
    -25.903  0.0000E+00  0.1200E+01
    -25.723  0.0000E+00  0.1200E+01
    -25.543  0.0000E+00  0.1200E+01
    -25.363  0.0000E+00  0.1200E+01
    -25.183  0.0000E+00  0.1200E+01
    -25.003  0.0000E+00  0.1200E+01
    -24.822  0.0000E+00  0.1200E+01
    -24.642  0.0000E+00  0.1200E+01
    -24.462  0.0000E+00  0.1200E+01
    -24.282  0.0000E+00  0.1200E+01
    -24.102  0.0000E+00  0.1200E+01
    -23.922  0.0000E+00  0.1200E+01
    -23.742  0.0000E+00  0.1200E+01
    -23.561  0.0000E+00  0.1200E+01
    -23.381  0.0000E+00  0.1200E+01
    -23.201  0.0000E+00  0.1200E+01
    -23.021  0.0000E+00  0.1200E+01
    -22.841  0.0000E+00  0.1200E+01
    -22.661  0.0000E+00  0.1200E+01
    -22.481  0.0000E+00  0.1200E+01
    -22.301  0.0000E+00  0.1200E+01
    -22.120  0.0000E+00  0.1200E+01
    -21.940  0.0000E+00  0.1200E+01
    -21.760  0.0000E+00  0.1200E+01
    -21.580  0.0000E+00  0.1200E+01
    -21.400  0.0000E+00  0.1200E+01
    -21.220  0.0000E+00  0.1200E+01
    -21.040  0.0000E+00  0.1200E+01
    -20.859  0.0000E+00  0.1200E+01
    -20.679  0.0000E+00  0.1200E+01
    -20.499  0.0000E+00  0.1200E+01
    -20.319  0.0000E+00  0.1200E+01
    -20.139  0.0000E+00  0.1200E+01
    -19.959  0.0000E+00  0.1200E+01
    -19.779  0.0000E+00  0.1200E+01
    -19.598  0.0000E+00  0.1200E+01
    -19.418  0.0000E+00  0.1200E+01
    -19.238  0.0000E+00  0.1200E+01
    -19.058  0.0000E+00  0.1200E+01
    -18.878  0.0000E+00  0.1200E+01
    -18.698  0.0000E+00  0.1200E+01
    -18.518  0.0000E+00  0.1200E+01
    -18.338  0.0000E+00  0.1200E+01
    -18.157  0.0000E+00  0.1200E+01
    -17.977  0.0000E+00  0.1200E+01
    -17.797  0.0000E+00  0.1200E+01
    -17.617  0.0000E+00  0.1200E+01
    -17.437  0.0000E+00  0.1200E+01
    -17.257  0.0000E+00  0.1200E+01
    -17.077  0.0000E+00  0.1200E+01
    -16.896  0.0000E+00  0.1200E+01
    -16.716  0.0000E+00  0.1200E+01
    -16.536  0.0000E+00  0.1200E+01
    -16.356  0.0000E+00  0.1200E+01
    -16.176  0.0000E+00  0.1200E+01
    -15.996  0.0000E+00  0.1200E+01
    -15.816  0.0000E+00  0.1200E+01
    -15.635  0.0000E+00  0.1200E+01
    -15.455  0.0000E+00  0.1200E+01
    -15.275  0.0000E+00  0.1200E+01
    -15.095  0.0000E+00  0.1200E+01
    -14.915  0.0000E+00  0.1200E+01
    -14.735  0.0000E+00  0.1200E+01
    -14.555  0.0000E+00  0.1200E+01
    -14.375  0.0000E+00  0.1200E+01
    -14.194  0.0000E+00  0.1200E+01
    -14.014  0.0000E+00  0.1200E+01
    -13.834  0.0000E+00  0.1200E+01
    -13.654  0.0000E+00  0.1200E+01
    -13.474  0.0000E+00  0.1200E+01
    -13.294  0.0000E+00  0.1200E+01
    -13.114  0.0000E+00  0.1200E+01
    -12.933  0.0000E+00  0.1200E+01
    -12.753  0.0000E+00  0.1200E+01
    -12.573  0.0000E+00  0.1200E+01
    -12.393  0.0000E+00  0.1200E+01
    -12.213  0.0000E+00  0.1200E+01
    -12.033  0.0000E+00  0.1200E+01
    -11.853  0.0000E+00  0.1200E+01
    -11.672  0.0000E+00  0.1200E+01
    -11.492  0.0000E+00  0.1200E+01
    -11.312  0.0000E+00  0.1200E+01
    -11.132  0.0000E+00  0.1200E+01
    -10.952  0.0000E+00  0.1200E+01
    -10.772  0.0000E+00  0.1200E+01
    -10.592  0.0000E+00  0.1200E+01
    -10.412  0.0000E+00  0.1200E+01
    -10.231  0.0000E+00  0.1200E+01
    -10.051  0.0000E+00  0.1200E+01
     -9.871  0.0000E+00  0.1200E+01
     -9.691  0.0000E+00  0.1200E+01
     -9.511  0.0000E+00  0.1200E+01
     -9.331  0.0000E+00  0.1200E+01
     -9.151  0.0000E+00  0.1202E+01
     -8.970  0.5204E-01  0.1211E+01
     -8.790  0.1041E+00  0.1230E+01
     -8.610  0.6939E-01  0.1242E+01
     -8.430  0.5204E-01  0.1252E+01
     -8.250  0.1082E-03  0.1289E+01
     -8.070  0.0000E+00  0.1327E+01
     -7.890  0.2429E+00  0.1389E+01
     -7.710  0.6110E+00  0.1509E+01
     -7.529  0.1664E+00  0.1578E+01
     -7.349  0.0000E+00  0.1600E+01
     -7.169  0.0000E+00  0.1600E+01
     -6.989  0.0000E+00  0.1600E+01
     -6.809  0.0000E+00  0.1600E+01
     -6.629  0.0000E+00  0.1600E+01
     -6.449  0.0000E+00  0.1600E+01
     -6.268  0.0000E+00  0.1600E+01
     -6.088  0.0000E+00  0.1600E+01
     -5.908  0.0000E+00  0.1600E+01
     -5.728  0.0000E+00  0.1600E+01
     -5.548  0.0000E+00  0.1600E+01
     -5.368  0.0000E+00  0.1600E+01
     -5.188  0.0000E+00  0.1600E+01
     -5.007  0.0000E+00  0.1600E+01
     -4.827  0.0000E+00  0.1600E+01
     -4.647  0.0000E+00  0.1600E+01
     -4.467  0.0000E+00  0.1600E+01
     -4.287  0.0000E+00  0.1600E+01
     -4.107  0.0000E+00  0.1600E+01
     -3.927  0.0000E+00  0.1600E+01
     -3.747  0.0000E+00  0.1600E+01
     -3.566  0.0000E+00  0.1600E+01
     -3.386  0.0000E+00  0.1600E+01
     -3.206  0.0000E+00  0.1600E+01
     -3.026  0.0000E+00  0.1600E+01
     -2.846  0.0000E+00  0.1600E+01
     -2.666  0.0000E+00  0.1600E+01
     -2.486  0.0000E+00  0.1600E+01
     -2.305  0.0000E+00  0.1600E+01
     -2.125  0.0000E+00  0.1600E+01
     -1.945  0.0000E+00  0.1600E+01
     -1.765  0.0000E+00  0.1600E+01
     -1.585  0.0000E+00  0.1600E+01
     -1.405  0.3470E-01  0.1606E+01
     -1.225  0.0000E+00  0.1606E+01
     -1.044  0.1722E-04  0.1606E+01
     -0.864  0.2082E+00  0.1681E+01
     -0.684  0.3262E-06  0.1686E+01
     -0.504  0.1041E+00  0.1742E+01
     -0.324  0.4880E+00  0.1830E+01
     -0.144  0.0000E+00  0.1902E+01
      0.036  0.0000E+00  0.1902E+01
      0.216  0.1940E+00  0.1937E+01
      0.397  0.2561E+00  0.1985E+01
      0.577  0.1466E-01  0.2017E+01
      0.757  0.0000E+00  0.2027E+01
      0.937  0.0000E+00  0.2036E+01
      1.117  0.1561E+00  0.2064E+01
      1.297  0.2082E+00  0.2158E+01
      1.477  0.1041E+00  0.2233E+01
      1.658  0.0000E+00  0.2233E+01
      1.838  0.2080E+00  0.2280E+01
      2.018  0.4164E+00  0.2373E+01
      2.198  0.3544E-01  0.2436E+01
      2.378  0.5936E-02  0.2506E+01
      2.558  0.2082E+00  0.2570E+01
      2.738  0.2524E+00  0.2653E+01
      2.919  0.0000E+00  0.2733E+01
      3.099  0.2177E+00  0.2772E+01
      3.279  0.2922E-05  0.2777E+01
      3.459  0.2602E-01  0.2800E+01
      3.639  0.0000E+00  0.2800E+01
      3.819  0.0000E+00  0.2800E+01
      3.999  0.0000E+00  0.2800E+01
      4.179  0.0000E+00  0.2800E+01
      4.360  0.0000E+00  0.2800E+01
      4.540  0.0000E+00  0.2800E+01
      4.720  0.0000E+00  0.2800E+01
      4.900  0.0000E+00  0.2800E+01
      5.080  0.0000E+00  0.2800E+01
      5.260  0.0000E+00  0.2800E+01
      5.440  0.0000E+00  0.2800E+01
      5.621  0.0000E+00  0.2800E+01
      5.801  0.0000E+00  0.2800E+01
      5.981  0.0000E+00  0.2800E+01
      6.161  0.2602E-01  0.2805E+01
      6.341  0.0000E+00  0.2805E+01
      6.521  0.0000E+00  0.2805E+01
      6.701  0.9594E-12  0.2805E+01
      6.882  0.0000E+00  0.2814E+01
      7.062  0.0000E+00  0.2816E+01
      7.242  0.1010E+00  0.2853E+01
      7.422  0.0000E+00  0.2853E+01
      7.602  0.0000E+00  0.2853E+01
      7.782  0.2082E+00  0.2933E+01
      7.962  0.1605E-05  0.2939E+01
      8.142  0.5203E-01  0.2958E+01
      8.323  0.2051E-01  0.2974E+01
      8.503  0.1156E-16  0.2980E+01
      8.683  0.3123E+00  0.3120E+01
      8.863  0.5060E-09  0.3139E+01
      9.043  0.1566E+00  0.3214E+01
      9.223  0.0000E+00  0.3280E+01
      9.403  0.2044E+00  0.3317E+01
      9.584  0.0000E+00  0.3317E+01
      9.764  0.7538E-03  0.3317E+01
      9.944  0.1343E+00  0.3416E+01
     10.124  0.2082E+00  0.3486E+01
     10.304  0.8361E-01  0.3501E+01
     10.484  0.2909E-04  0.3539E+01
     10.664  0.0000E+00  0.3558E+01
     10.845  0.7100E-07  0.3558E+01
     11.025  0.0000E+00  0.3577E+01
     11.205  0.6939E-01  0.3589E+01
     11.385  0.0000E+00  0.3600E+01
     11.565  0.0000E+00  0.3600E+01
     11.745  0.0000E+00  0.3600E+01
     11.925  0.0000E+00  0.3600E+01
     12.105  0.0000E+00  0.3600E+01
     12.286  0.0000E+00  0.3600E+01
     12.466  0.0000E+00  0.3600E+01
     12.646  0.0000E+00  0.3600E+01
     12.826  0.0000E+00  0.3600E+01
     13.006  0.0000E+00  0.3600E+01
     13.186  0.0000E+00  0.3600E+01
     13.366  0.0000E+00  0.3600E+01
     13.547  0.0000E+00  0.3600E+01
     13.727  0.0000E+00  0.3600E+01
