    8    8   20    1
  0.1773144E+02  0.5215285E-09  0.5215285E-09  0.5215285E-09  0.5000000E-15
  1.000000000000000E-004
  CAR 
 unknown system                          
     56     10     36
 
  0.0000000E+00  0.0000000E+00  0.0000000E+00  0.1562500E-01
    1      -37.856834
    2      -37.856834
    3      -37.856834
    4      -37.853399
    5      -37.853399
    6      -37.853399
    7      -37.853399
    8      -37.853399
    9      -37.853399
   10      -37.850579
   11      -37.850579
   12      -37.850579
   13       -9.232195
   14       -7.550528
   15       -7.550528
   16       -7.550528
   17       -0.801196
   18       -0.801196
   19       -0.801196
   20        1.725164
   21        1.725164
   22        1.725164
   23        1.725164
   24        1.725164
   25        1.725164
   26        3.414481
   27        3.414481
   28        3.414481
   29        6.109589
   30        6.109589
   31        6.109589
   32        6.955967
   33        7.675553
   34        7.675553
   35        7.675553
   36       11.270279
 
  0.2500000E+00  0.0000000E+00  0.0000000E+00  0.9375000E-01
    1      -37.856288
    2      -37.856288
    3      -37.856122
    4      -37.853848
    5      -37.853848
    6      -37.853396
    7      -37.853396
    8      -37.852934
    9      -37.852934
   10      -37.851557
   11      -37.851030
   12      -37.851030
   13       -9.029975
   14       -7.856698
   15       -7.526696
   16       -7.526696
   17       -0.549584
   18       -0.549584
   19       -0.341672
   20        1.149099
   21        1.149099
   22        1.346340
   23        1.346340
   24        1.916792
   25        1.916792
   26        2.386636
   27        3.087501
   28        3.087501
   29        6.748159
   30        7.134926
   31        7.134926
   32        7.990656
   33        8.117397
   34        8.780658
   35        8.780658
   36       10.293108
 
  0.5000000E+00  0.0000000E+00  0.0000000E+00  0.4687500E-01
    1      -37.855010
    2      -37.855010
    3      -37.855009
    4      -37.855009
    5      -37.854037
    6      -37.854037
    7      -37.853285
    8      -37.853285
    9      -37.852084
   10      -37.852084
   11      -37.852084
   12      -37.852084
   13       -8.492297
   14       -8.492297
   15       -7.502458
   16       -7.502458
   17        0.165601
   18        0.165601
   19        0.165601
   20        0.165601
   21        0.837560
   22        0.837560
   23        1.038855
   24        1.038855
   25        2.439475
   26        2.439475
   27        2.439475
   28        2.439475
   29        8.324501
   30        8.324501
   31        8.601989
   32        8.601989
   33        8.911224
   34        8.911224
   35       11.245939
   36       11.246324
 
  0.2500000E+00  0.2500000E+00  0.0000000E+00  0.1875000E+00
    1      -37.856044
    2      -37.856044
    3      -37.855817
    4      -37.854708
    5      -37.853476
    6      -37.853476
    7      -37.852897
    8      -37.852817
    9      -37.852817
   10      -37.852750
   11      -37.851441
   12      -37.850808
   13       -8.840813
   14       -7.785088
   15       -7.785088
   16       -7.548401
   17       -0.365114
   18       -0.365114
   19       -0.301488
   20        0.208731
   21        1.361735
   22        1.361735
   23        1.446431
   24        1.815132
   25        1.815132
   26        2.046699
   27        2.696617
   28        3.307278
   29        7.228440
   30        7.677678
   31        7.677678
   32        8.635639
   33        9.047866
   34        9.047866
   35       10.007479
   36       10.508631
 
  0.5000000E+00  0.2500000E+00  0.0000000E+00  0.1875000E+00
    1      -37.855624
    2      -37.855624
    3      -37.854797
    4      -37.854797
    5      -37.854700
    6      -37.854700
    7      -37.852610
    8      -37.852610
    9      -37.852527
   10      -37.852527
   11      -37.851588
   12      -37.851588
   13       -8.346688
   14       -8.346688
   15       -7.641450
   16       -7.641450
   17       -0.314312
   18       -0.314312
   19        0.317669
   20        0.317669
   21        0.401838
   22        0.401838
   23        1.948630
   24        1.948630
   25        1.954594
   26        1.954594
   27        2.734426
   28        2.734426
   29        8.578590
   30        8.578590
   31        9.112557
   32        9.112557
   33        9.782676
   34        9.782676
   35       10.374813
   36       10.402715
 
  0.5000000E+00  0.5000000E+00  0.0000000E+00  0.4687500E-01
    1      -37.855714
    2      -37.855714
    3      -37.855714
    4      -37.855714
    5      -37.853581
    6      -37.853581
    7      -37.853581
    8      -37.853581
    9      -37.851691
   10      -37.851691
   11      -37.851691
   12      -37.851691
   13       -7.991580
   14       -7.991580
   15       -7.991580
   16       -7.991580
   17       -0.308799
   18       -0.308799
   19       -0.308799
   20       -0.308799
   21        1.065412
   22        1.065412
   23        1.065412
   24        1.065412
   25        2.781262
   26        2.781262
   27        2.781262
   28        2.781262
   29        8.983571
   30        8.983571
   31        8.983571
   32        8.983571
   33       10.877948
   34       10.878194
   35       10.878920
   36       10.881357
 
  0.2500000E+00  0.2500000E+00  0.2500000E+00  0.1250000E+00
    1      -37.856325
    2      -37.856325
    3      -37.856325
    4      -37.854152
    5      -37.853429
    6      -37.853429
    7      -37.853429
    8      -37.852505
    9      -37.852505
   10      -37.852505
   11      -37.851148
   12      -37.851148
   13       -8.667638
   14       -7.753040
   15       -7.753040
   16       -7.753040
   17       -0.651234
   18       -0.651234
   19       -0.651234
   20        0.582425
   21        1.190885
   22        1.190885
   23        1.190885
   24        2.204717
   25        2.204717
   26        2.204717
   27        3.090975
   28        3.090975
   29        7.723803
   30        7.723803
   31        7.723803
   32        8.218846
   33       10.049371
   34       10.049371
   35       10.049371
   36       11.147492
 
  0.5000000E+00  0.2500000E+00  0.2500000E+00  0.1875000E+00
    1      -37.856615
    2      -37.856615
    3      -37.855802
    4      -37.855802
    5      -37.853400
    6      -37.853400
    7      -37.852304
    8      -37.852304
    9      -37.851825
   10      -37.851825
   11      -37.851775
   12      -37.851775
   13       -8.226718
   14       -8.226718
   15       -7.720210
   16       -7.720210
   17       -0.915531
   18       -0.915531
   19       -0.363738
   20       -0.363738
   21        1.260265
   22        1.260265
   23        2.257485
   24        2.257485
   25        2.493247
   26        2.493247
   27        2.619137
   28        2.619137
   29        8.561109
   30        8.561109
   31        8.904387
   32        8.904387
   33        9.388593
   34        9.388593
   35        9.941191
   36        9.941191
 
  0.5000000E+00  0.5000000E+00  0.2500000E+00  0.9375000E-01
    1      -37.856841
    2      -37.856841
    3      -37.856841
    4      -37.856840
    5      -37.852365
    6      -37.852365
    7      -37.852365
    8      -37.852365
    9      -37.851624
   10      -37.851624
   11      -37.851624
   12      -37.851624
   13       -7.953269
   14       -7.953269
   15       -7.953269
   16       -7.953269
   17       -1.017836
   18       -1.017836
   19       -1.017836
   20       -1.017836
   21        2.047629
   22        2.047629
   23        2.047629
   24        2.047629
   25        2.801218
   26        2.801218
   27        2.801218
   28        2.801218
   29        8.613402
   30        8.613402
   31        8.613402
   32        8.613402
   33        9.810649
   34        9.810649
   35        9.810649
   36        9.810649
 
  0.5000000E+00  0.5000000E+00  0.5000000E+00  0.1562500E-01
    1      -37.857708
    2      -37.857708
    3      -37.857708
    4      -37.857708
    5      -37.851704
    6      -37.851704
    7      -37.851704
    8      -37.851704
    9      -37.851704
   10      -37.851704
   11      -37.851704
   12      -37.851704
   13       -7.913718
   14       -7.913718
   15       -7.913718
   16       -7.913718
   17       -1.444303
   18       -1.444303
   19       -1.444303
   20       -1.444303
   21        2.821507
   22        2.821507
   23        2.821507
   24        2.821507
   25        2.821507
   26        2.821507
   27        2.821507
   28        2.821507
   29        7.805812
   30        7.805812
   31        7.805812
   32        7.805812
   33       10.235687
   34       10.235687
   35       10.235687
   36       10.235687
