   8   8   0   0
  0.1720993E+02  0.5163645E-09  0.5163645E-09  0.5163645E-09  0.5000000E-15
  1.000000000000000E-004
  CAR 
 unknown system                          
     14.00807394    -39.98817529  301      3.79378346      1.00000000
    -39.988  0.0000E+00  0.0000E+00
    -39.808  0.0000E+00  0.0000E+00
    -39.628  0.0000E+00  0.0000E+00
    -39.448  0.0000E+00  0.0000E+00
    -39.268  0.0000E+00  0.0000E+00
    -39.088  0.0000E+00  0.0000E+00
    -38.908  0.0000E+00  0.0000E+00
    -38.728  0.0000E+00  0.0000E+00
    -38.548  0.0000E+00  0.0000E+00
    -38.368  0.0000E+00  0.0000E+00
    -38.188  0.0000E+00  0.0000E+00
    -38.008  0.0000E+00  0.0000E+00
    -37.828  0.0000E+00  0.0000E+00
    -37.648  0.0000E+00  0.0000E+00
    -37.468  0.6667E+01  0.1200E+01
    -37.288  0.0000E+00  0.1200E+01
    -37.108  0.0000E+00  0.1200E+01
    -36.928  0.0000E+00  0.1200E+01
    -36.748  0.0000E+00  0.1200E+01
    -36.568  0.0000E+00  0.1200E+01
    -36.388  0.0000E+00  0.1200E+01
    -36.208  0.0000E+00  0.1200E+01
    -36.028  0.0000E+00  0.1200E+01
    -35.848  0.0000E+00  0.1200E+01
    -35.668  0.0000E+00  0.1200E+01
    -35.488  0.0000E+00  0.1200E+01
    -35.309  0.0000E+00  0.1200E+01
    -35.129  0.0000E+00  0.1200E+01
    -34.949  0.0000E+00  0.1200E+01
    -34.769  0.0000E+00  0.1200E+01
    -34.589  0.0000E+00  0.1200E+01
    -34.409  0.0000E+00  0.1200E+01
    -34.229  0.0000E+00  0.1200E+01
    -34.049  0.0000E+00  0.1200E+01
    -33.869  0.0000E+00  0.1200E+01
    -33.689  0.0000E+00  0.1200E+01
    -33.509  0.0000E+00  0.1200E+01
    -33.329  0.0000E+00  0.1200E+01
    -33.149  0.0000E+00  0.1200E+01
    -32.969  0.0000E+00  0.1200E+01
    -32.789  0.0000E+00  0.1200E+01
    -32.609  0.0000E+00  0.1200E+01
    -32.429  0.0000E+00  0.1200E+01
    -32.249  0.0000E+00  0.1200E+01
    -32.069  0.0000E+00  0.1200E+01
    -31.889  0.0000E+00  0.1200E+01
    -31.709  0.0000E+00  0.1200E+01
    -31.529  0.0000E+00  0.1200E+01
    -31.349  0.0000E+00  0.1200E+01
    -31.169  0.0000E+00  0.1200E+01
    -30.989  0.0000E+00  0.1200E+01
    -30.809  0.0000E+00  0.1200E+01
    -30.629  0.0000E+00  0.1200E+01
    -30.449  0.0000E+00  0.1200E+01
    -30.269  0.0000E+00  0.1200E+01
    -30.089  0.0000E+00  0.1200E+01
    -29.909  0.0000E+00  0.1200E+01
    -29.729  0.0000E+00  0.1200E+01
    -29.549  0.0000E+00  0.1200E+01
    -29.369  0.0000E+00  0.1200E+01
    -29.189  0.0000E+00  0.1200E+01
    -29.009  0.0000E+00  0.1200E+01
    -28.829  0.0000E+00  0.1200E+01
    -28.649  0.0000E+00  0.1200E+01
    -28.469  0.0000E+00  0.1200E+01
    -28.289  0.0000E+00  0.1200E+01
    -28.109  0.0000E+00  0.1200E+01
    -27.929  0.0000E+00  0.1200E+01
    -27.749  0.0000E+00  0.1200E+01
    -27.569  0.0000E+00  0.1200E+01
    -27.389  0.0000E+00  0.1200E+01
    -27.209  0.0000E+00  0.1200E+01
    -27.029  0.0000E+00  0.1200E+01
    -26.849  0.0000E+00  0.1200E+01
    -26.669  0.0000E+00  0.1200E+01
    -26.489  0.0000E+00  0.1200E+01
    -26.309  0.0000E+00  0.1200E+01
    -26.129  0.0000E+00  0.1200E+01
    -25.949  0.0000E+00  0.1200E+01
    -25.769  0.0000E+00  0.1200E+01
    -25.589  0.0000E+00  0.1200E+01
    -25.409  0.0000E+00  0.1200E+01
    -25.229  0.0000E+00  0.1200E+01
    -25.049  0.0000E+00  0.1200E+01
    -24.869  0.0000E+00  0.1200E+01
    -24.689  0.0000E+00  0.1200E+01
    -24.509  0.0000E+00  0.1200E+01
    -24.329  0.0000E+00  0.1200E+01
    -24.149  0.0000E+00  0.1200E+01
    -23.969  0.0000E+00  0.1200E+01
    -23.789  0.0000E+00  0.1200E+01
    -23.609  0.0000E+00  0.1200E+01
    -23.429  0.0000E+00  0.1200E+01
    -23.249  0.0000E+00  0.1200E+01
    -23.069  0.0000E+00  0.1200E+01
    -22.889  0.0000E+00  0.1200E+01
    -22.709  0.0000E+00  0.1200E+01
    -22.529  0.0000E+00  0.1200E+01
    -22.349  0.0000E+00  0.1200E+01
    -22.169  0.0000E+00  0.1200E+01
    -21.989  0.0000E+00  0.1200E+01
    -21.809  0.0000E+00  0.1200E+01
    -21.629  0.0000E+00  0.1200E+01
    -21.449  0.0000E+00  0.1200E+01
    -21.269  0.0000E+00  0.1200E+01
    -21.089  0.0000E+00  0.1200E+01
    -20.910  0.0000E+00  0.1200E+01
    -20.730  0.0000E+00  0.1200E+01
    -20.550  0.0000E+00  0.1200E+01
    -20.370  0.0000E+00  0.1200E+01
    -20.190  0.0000E+00  0.1200E+01
    -20.010  0.0000E+00  0.1200E+01
    -19.830  0.0000E+00  0.1200E+01
    -19.650  0.0000E+00  0.1200E+01
    -19.470  0.0000E+00  0.1200E+01
    -19.290  0.0000E+00  0.1200E+01
    -19.110  0.0000E+00  0.1200E+01
    -18.930  0.0000E+00  0.1200E+01
    -18.750  0.0000E+00  0.1200E+01
    -18.570  0.0000E+00  0.1200E+01
    -18.390  0.0000E+00  0.1200E+01
    -18.210  0.0000E+00  0.1200E+01
    -18.030  0.0000E+00  0.1200E+01
    -17.850  0.0000E+00  0.1200E+01
    -17.670  0.0000E+00  0.1200E+01
    -17.490  0.0000E+00  0.1200E+01
    -17.310  0.0000E+00  0.1200E+01
    -17.130  0.0000E+00  0.1200E+01
    -16.950  0.0000E+00  0.1200E+01
    -16.770  0.0000E+00  0.1200E+01
    -16.590  0.0000E+00  0.1200E+01
    -16.410  0.0000E+00  0.1200E+01
    -16.230  0.0000E+00  0.1200E+01
    -16.050  0.0000E+00  0.1200E+01
    -15.870  0.0000E+00  0.1200E+01
    -15.690  0.0000E+00  0.1200E+01
    -15.510  0.0000E+00  0.1200E+01
    -15.330  0.0000E+00  0.1200E+01
    -15.150  0.0000E+00  0.1200E+01
    -14.970  0.0000E+00  0.1200E+01
    -14.790  0.0000E+00  0.1200E+01
    -14.610  0.0000E+00  0.1200E+01
    -14.430  0.0000E+00  0.1200E+01
    -14.250  0.0000E+00  0.1200E+01
    -14.070  0.0000E+00  0.1200E+01
    -13.890  0.0000E+00  0.1200E+01
    -13.710  0.0000E+00  0.1200E+01
    -13.530  0.0000E+00  0.1200E+01
    -13.350  0.0000E+00  0.1200E+01
    -13.170  0.0000E+00  0.1200E+01
    -12.990  0.0000E+00  0.1200E+01
    -12.810  0.0000E+00  0.1200E+01
    -12.630  0.0000E+00  0.1200E+01
    -12.450  0.0000E+00  0.1200E+01
    -12.270  0.0000E+00  0.1200E+01
    -12.090  0.0000E+00  0.1200E+01
    -11.910  0.0000E+00  0.1200E+01
    -11.730  0.0000E+00  0.1200E+01
    -11.550  0.0000E+00  0.1200E+01
    -11.370  0.0000E+00  0.1200E+01
    -11.190  0.0000E+00  0.1200E+01
    -11.010  0.0000E+00  0.1200E+01
    -10.830  0.0000E+00  0.1200E+01
    -10.650  0.0000E+00  0.1200E+01
    -10.470  0.0000E+00  0.1200E+01
    -10.290  0.0000E+00  0.1200E+01
    -10.110  0.0000E+00  0.1200E+01
     -9.930  0.0000E+00  0.1200E+01
     -9.750  0.0000E+00  0.1200E+01
     -9.570  0.0000E+00  0.1200E+01
     -9.390  0.0000E+00  0.1200E+01
     -9.210  0.0000E+00  0.1200E+01
     -9.030  0.0000E+00  0.1202E+01
     -8.850  0.0000E+00  0.1211E+01
     -8.670  0.1042E+00  0.1230E+01
     -8.490  0.6945E-01  0.1242E+01
     -8.310  0.5209E-01  0.1252E+01
     -8.130  0.2083E+00  0.1289E+01
     -7.950  0.0000E+00  0.1327E+01
     -7.770  0.3116E+00  0.1383E+01
     -7.590  0.2122E+00  0.1437E+01
     -7.410  0.2083E+00  0.1548E+01
     -7.230  0.5209E-01  0.1600E+01
     -7.050  0.0000E+00  0.1600E+01
     -6.870  0.0000E+00  0.1600E+01
     -6.690  0.0000E+00  0.1600E+01
     -6.511  0.0000E+00  0.1600E+01
     -6.331  0.0000E+00  0.1600E+01
     -6.151  0.0000E+00  0.1600E+01
     -5.971  0.0000E+00  0.1600E+01
     -5.791  0.0000E+00  0.1600E+01
     -5.611  0.0000E+00  0.1600E+01
     -5.431  0.0000E+00  0.1600E+01
     -5.251  0.0000E+00  0.1600E+01
     -5.071  0.0000E+00  0.1600E+01
     -4.891  0.0000E+00  0.1600E+01
     -4.711  0.0000E+00  0.1600E+01
     -4.531  0.0000E+00  0.1600E+01
     -4.351  0.0000E+00  0.1600E+01
     -4.171  0.0000E+00  0.1600E+01
     -3.991  0.0000E+00  0.1600E+01
     -3.811  0.0000E+00  0.1600E+01
     -3.631  0.0000E+00  0.1600E+01
     -3.451  0.0000E+00  0.1600E+01
     -3.271  0.0000E+00  0.1600E+01
     -3.091  0.0000E+00  0.1600E+01
     -2.911  0.0000E+00  0.1600E+01
     -2.731  0.0000E+00  0.1600E+01
     -2.551  0.0000E+00  0.1600E+01
     -2.371  0.0000E+00  0.1600E+01
     -2.191  0.0000E+00  0.1600E+01
     -2.011  0.0000E+00  0.1600E+01
     -1.831  0.0000E+00  0.1600E+01
     -1.651  0.0000E+00  0.1600E+01
     -1.471  0.0000E+00  0.1600E+01
     -1.291  0.3472E-01  0.1606E+01
     -1.111  0.0000E+00  0.1606E+01
     -0.931  0.6616E-06  0.1606E+01
     -0.751  0.2083E+00  0.1681E+01
     -0.571  0.3428E-10  0.1686E+01
     -0.391  0.1042E+00  0.1742E+01
     -0.211  0.3547E+00  0.1806E+01
     -0.031  0.0000E+00  0.1902E+01
      0.149  0.0000E+00  0.1902E+01
      0.329  0.1042E+00  0.1920E+01
      0.509  0.1951E+00  0.1974E+01
      0.689  0.0000E+00  0.2014E+01
      0.869  0.0000E+00  0.2027E+01
      1.049  0.4985E-01  0.2036E+01
      1.229  0.1170E+00  0.2057E+01
      1.409  0.2084E+00  0.2120E+01
      1.589  0.3125E+00  0.2214E+01
      1.769  0.0000E+00  0.2233E+01
      1.949  0.5209E-01  0.2242E+01
      2.129  0.1015E+00  0.2298E+01
      2.309  0.3125E+00  0.2430E+01
      2.489  0.4166E+00  0.2505E+01
      2.669  0.1479E+00  0.2531E+01
      2.849  0.1707E+00  0.2601E+01
      3.029  0.4250E+00  0.2703E+01
      3.209  0.0000E+00  0.2733E+01
      3.389  0.2431E+00  0.2777E+01
      3.569  0.9248E-01  0.2793E+01
      3.749  0.2604E-01  0.2800E+01
      3.929  0.0000E+00  0.2800E+01
      4.109  0.0000E+00  0.2800E+01
      4.289  0.0000E+00  0.2800E+01
      4.469  0.0000E+00  0.2800E+01
      4.649  0.0000E+00  0.2800E+01
      4.829  0.0000E+00  0.2800E+01
      5.009  0.0000E+00  0.2800E+01
      5.189  0.0000E+00  0.2800E+01
      5.369  0.0000E+00  0.2800E+01
      5.549  0.0000E+00  0.2800E+01
      5.729  0.0000E+00  0.2800E+01
      5.909  0.0000E+00  0.2800E+01
      6.089  0.0000E+00  0.2800E+01
      6.269  0.0000E+00  0.2800E+01
      6.449  0.2573E-01  0.2805E+01
      6.629  0.0000E+00  0.2805E+01
      6.809  0.0000E+00  0.2805E+01
      6.989  0.0000E+00  0.2805E+01
      7.169  0.0000E+00  0.2814E+01
      7.349  0.0000E+00  0.2814E+01
      7.529  0.1679E+00  0.2844E+01
      7.709  0.0000E+00  0.2853E+01
      7.888  0.2604E-01  0.2858E+01
      8.068  0.4167E+00  0.2933E+01
      8.248  0.0000E+00  0.2948E+01
      8.428  0.0000E+00  0.2948E+01
      8.608  0.8041E-01  0.2963E+01
      8.788  0.0000E+00  0.2980E+01
      8.968  0.6273E+00  0.3093E+01
      9.148  0.1563E+00  0.3148E+01
      9.328  0.3125E+00  0.3242E+01
      9.508  0.1011E+00  0.3260E+01
      9.688  0.2925E-04  0.3280E+01
      9.868  0.0000E+00  0.3317E+01
     10.048  0.2083E+00  0.3355E+01
     10.228  0.1269E-08  0.3392E+01
     10.408  0.2083E+00  0.3486E+01
     10.588  0.8681E-01  0.3502E+01
     10.768  0.1467E+00  0.3528E+01
     10.948  0.0000E+00  0.3558E+01
     11.128  0.0000E+00  0.3558E+01
     11.308  0.3470E-16  0.3558E+01
     11.488  0.6945E-01  0.3589E+01
     11.668  0.0000E+00  0.3600E+01
     11.848  0.0000E+00  0.3600E+01
     12.028  0.0000E+00  0.3600E+01
     12.208  0.0000E+00  0.3600E+01
     12.388  0.0000E+00  0.3600E+01
     12.568  0.0000E+00  0.3600E+01
     12.748  0.0000E+00  0.3600E+01
     12.928  0.0000E+00  0.3600E+01
     13.108  0.0000E+00  0.3600E+01
     13.288  0.0000E+00  0.3600E+01
     13.468  0.0000E+00  0.3600E+01
     13.648  0.0000E+00  0.3600E+01
     13.828  0.0000E+00  0.3600E+01
     14.008  0.0000E+00  0.3600E+01
