       N       E                     dE             d eps       ncg     rms          rms(c)
DAV:   1     0.468362294410E+03    0.46836E+03   -0.34409E+04   888   0.154E+03
DAV:   2    -0.328040488483E+01   -0.47164E+03   -0.45922E+03   856   0.395E+02
DAV:   3    -0.366322357909E+02   -0.33352E+02   -0.33122E+02   848   0.103E+02
DAV:   4    -0.376656353690E+02   -0.10334E+01   -0.10312E+01   892   0.160E+01
DAV:   5    -0.376938497658E+02   -0.28214E-01   -0.28209E-01   872   0.254E+00    0.865E+00
DAV:   6    -0.363890807185E+02    0.13048E+01   -0.25696E+00   772   0.651E+00    0.639E+00
DAV:   7    -0.362303698948E+02    0.15871E+00   -0.76747E-01   900   0.338E+00    0.361E+00
DAV:   8    -0.362239437792E+02    0.64261E-02   -0.49721E-02   780   0.137E+00    0.103E+00
DAV:   9    -0.362231487247E+02    0.79505E-03   -0.24121E-03   896   0.270E-01    0.267E-01
DAV:  10    -0.362231829873E+02   -0.34263E-04   -0.54957E-04   896   0.115E-01    0.180E-02
DAV:  11    -0.362231758534E+02    0.71339E-05   -0.35179E-05   792   0.323E-02    0.195E-02
DAV:  12    -0.362231752309E+02    0.62252E-06   -0.20938E-06   888   0.795E-03    0.192E-03
DAV:  13    -0.362231752196E+02    0.11264E-07   -0.11596E-07   904   0.195E-03    0.107E-03
DAV:  14    -0.362231751678E+02    0.51861E-07   -0.15013E-08   760   0.471E-04    0.150E-03
DAV:  15    -0.362231752073E+02   -0.39564E-07   -0.13182E-08   700   0.613E-04    0.101E-04
DAV:  16    -0.362231752070E+02    0.36016E-09   -0.23141E-10   420   0.976E-05
   1 F= -.36223175E+02 E0= -.36223175E+02  d E =-.362232E+02
