 vasp.5.3.5 31Mar14 (build Nov 07 2014 11:36:17) complex                        
  
 executed on             LinuxIFC date 2015.10.15  01:05:22
 running on   20 total cores
 distrk:  each k-point on   20 cores,    1 groups
 distr:  one band on NCORES_PER_BAND=   5 cores,    4 groups


--------------------------------------------------------------------------------------------------------


 INCAR:
 POTCAR:    PAW_PBE Mg_pv 13Apr2007               
 POTCAR:    PAW_PBE S 06Sep2000                   
 POTCAR:    PAW_PBE Mg_pv 13Apr2007               
   VRHFIN =Mg: p6s2                                                             
   LEXCH  = PE                                                                  
   EATOM  =  1056.7344 eV,   77.6678 Ry                                         
                                                                                
   TITEL  = PAW_PBE Mg_pv 13Apr2007                                             
   LULTRA =        F    use ultrasoft PP ?                                      
   IUNSCR =        1    unscreen: 0-lin 1-nonlin 2-no                           
   RPACOR =    1.500    partial core radius                                     
   POMASS =   24.305; ZVAL   =    8.000    mass and valenz                      
   RCORE  =    2.000    outmost cutoff radius                                   
   RWIGS  =    2.000; RWIGS  =    1.058    wigner-seitz radius (au A)           
   ENMAX  =  403.929; ENMIN  =  302.947 eV                                      
   RCLOC  =    1.506    cutoff for local pot                                    
   LCOR   =        T    correct aug charges                                     
   LPAW   =        T    paw PP                                                  
   EAUG   =  758.780                                                            
   DEXC   =    0.000                                                            
   RMAX   =    2.045    core radius for proj-oper                               
   RAUG   =    1.300    factor for augmentation sphere                          
   RDEP   =    2.025    radius for radial grids                                 
   RDEPT  =    1.557    core radius for aug-charge                              
                                                                                
   Atomic configuration                                                         
    5 entries                                                                   
     n  l   j            E        occ.                                          
     1  0  0.50     -1259.6230   2.0000                                         
     2  0  0.50       -79.8442   2.0000                                         
     2  1  1.50       -46.6121   6.0000                                         
     3  0  0.50        -4.7055   2.0000                                         
     3  2  1.50        -1.3606   0.0000                                         
   Description                                                                  
     l       E           TYP  RCUT    TYP  RCUT                                 
     1    -46.6121073     23  1.600                                             
     1      2.7211652     23  1.600                                             
     0     -4.7054661     23  2.000                                             
     0     61.2262170     23  2.000                                             
     2     -1.3605826     23  2.000                                             
  local pseudopotential read in
  partial core-charges read in
  partial kinetic energy density read in
  atomic valenz-charges read in
  non local Contribution for L=           1  read in
    real space projection operators read in
  non local Contribution for L=           1  read in
    real space projection operators read in
  non local Contribution for L=           0  read in
    real space projection operators read in
  non local Contribution for L=           0  read in
    real space projection operators read in
  non local Contribution for L=           2  read in
    real space projection operators read in
    PAW grid and wavefunctions read in
 
   number of l-projection  operators is LMAX  =           5
   number of lm-projection operators is LMMAX =          13
 
 POTCAR:    PAW_PBE S 06Sep2000                   
   VRHFIN =S : s2p4                                                             
   LEXCH  = PE                                                                  
   EATOM  =   276.8230 eV,   20.3459 Ry                                         
                                                                                
   TITEL  = PAW_PBE S 06Sep2000                                                 
   LULTRA =        F    use ultrasoft PP ?                                      
   IUNSCR =        1    unscreen: 0-lin 1-nonlin 2-no                           
   RPACOR =    1.500    partial core radius                                     
   POMASS =   32.066; ZVAL   =    6.000    mass and valenz                      
   RCORE  =    1.900    outmost cutoff radius                                   
   RWIGS  =    2.200; RWIGS  =    1.164    wigner-seitz radius (au A)           
   ENMAX  =  258.689; ENMIN  =  194.016 eV                                      
   ICORE  =        2    local potential                                         
   LCOR   =        T    correct aug charges                                     
   LPAW   =        T    paw PP                                                  
   EAUG   =  335.092                                                            
   DEXC   =    0.000                                                            
   RMAX   =    1.942    core radius for proj-oper                               
   RAUG   =    1.300    factor for augmentation sphere                          
   RDEP   =    1.954    radius for radial grids                                 
   RDEPT  =    1.744    core radius for aug-charge                              
                                                                                
   Atomic configuration                                                         
    6 entries                                                                   
     n  l   j            E        occ.                                          
     1  0  0.50     -2405.8406   2.0000                                         
     2  0  0.50      -211.7007   2.0000                                         
     2  1  1.50      -156.4958   6.0000                                         
     3  0  0.50       -17.2562   2.0000                                         
     3  1  0.50        -7.0085   4.0000                                         
     3  2  1.50        -6.8029   0.0000                                         
   Description                                                                  
     l       E           TYP  RCUT    TYP  RCUT                                 
     0    -17.2561641     23  1.900                                             
     0    -15.8743224     23  1.900                                             
     1     -7.0085400     23  1.900                                             
     1     -2.7779785     23  1.900                                             
     2     -6.8029130     23  1.900                                             
  local pseudopotential read in
  partial core-charges read in
  partial kinetic energy density read in
  atomic valenz-charges read in
  non local Contribution for L=           0  read in
    real space projection operators read in
  non local Contribution for L=           0  read in
    real space projection operators read in
  non local Contribution for L=           1  read in
    real space projection operators read in
  non local Contribution for L=           1  read in
    real space projection operators read in
    PAW grid and wavefunctions read in
 
   number of l-projection  operators is LMAX  =           4
   number of lm-projection operators is LMMAX =           8
 

 ----------------------------------------------------------------------------- 
|                                                                             |
|  ADVICE TO THIS USER RUNNING 'VASP/VAMP'   (HEAR YOUR MASTER'S VOICE ...):  |
|                                                                             |
|      You enforced a specific xc-type in the INCAR file,                     |
|      a different type was found on the POTCAR file                          |
|          I HOPE YOU KNOW, WHAT YOU ARE  DOING                               |
|                                                                             |
 ----------------------------------------------------------------------------- 

  PAW_PBE Mg_pv 13Apr2007               :
 energy of atom  1       EATOM=-1056.7344
 kinetic energy error for atom=    0.0336 (will be added to EATOM!!)
  PAW_PBE S 06Sep2000                   :
 energy of atom  2       EATOM= -276.8230
 kinetic energy error for atom=    0.0015 (will be added to EATOM!!)
 
 
 POSCAR:  Mg S                                   
  positions in direct lattice
  No initial velocities read in
 exchange correlation table for  LEXCH =       14
   RHO(1)=    0.500       N(1)  =     2000
   RHO(2)=  100.500       N(2)  =     4000
 


--------------------------------------------------------------------------------------------------------


 ion  position               nearest neighbor table
   1  0.000  0.000  0.000-   5 2.58   7 2.58   8 2.58   7 2.58   8 2.58   5 2.58
   2  0.000  0.500  0.500-   6 2.58   7 2.58   8 2.58   8 2.58   7 2.58   6 2.58
   3  0.500  0.000  0.500-   5 2.58   6 2.58   7 2.58   5 2.58   6 2.58   7 2.58
   4  0.500  0.500  0.000-   5 2.58   6 2.58   8 2.58   6 2.58   5 2.58   8 2.58
   5  0.500  0.000  0.000-   1 2.58   3 2.58   4 2.58   3 2.58   4 2.58   1 2.58
   6  0.500  0.500  0.500-   2 2.58   3 2.58   4 2.58   4 2.58   3 2.58   2 2.58
   7  0.000  0.000  0.500-   1 2.58   2 2.58   3 2.58   1 2.58   2 2.58   3 2.58
   8  0.000  0.500  0.000-   1 2.58   2 2.58   4 2.58   2 2.58   1 2.58   4 2.58
 
  LATTYP: Found a simple cubic cell.
 ALAT       =     5.1636450322
  
  Lattice vectors:
  
 A1 = (   5.1636450322,   0.0000000000,   0.0000000000)
 A2 = (   0.0000000000,   5.1636450322,   0.0000000000)
 A3 = (   0.0000000000,   0.0000000000,   5.1636450322)


Analysis of symmetry for initial positions (statically):
=====================================================================
 Subroutine PRICEL returns following result:
 
  LATTYP: Found a face centered cubic cell.
 ALAT       =     5.1636450322
  
  Lattice vectors:
  
 A1 = (   2.5818225161,   2.5818225161,   0.0000000000)
 A2 = (   2.5818225161,   0.0000000000,  -2.5818225161)
 A3 = (   0.0000000000,   2.5818225161,  -2.5818225161)
 
   4 primitive cells build up your supercell.
 

 Routine SETGRP: Setting up the symmetry group for a 
 simple cubic supercell.


 Subroutine GETGRP returns: Found 48 space group operations
 (whereof 48 operations were pure point group operations)
 out of a pool of 48 trial point group operations.


The static configuration has the point symmetry O_h .


Analysis of symmetry for dynamics (positions and initial velocities):
=====================================================================
 Subroutine PRICEL returns following result:
 
  LATTYP: Found a face centered cubic cell.
 ALAT       =     5.1636450322
  
  Lattice vectors:
  
 A1 = (   2.5818225161,   2.5818225161,   0.0000000000)
 A2 = (   2.5818225161,   0.0000000000,  -2.5818225161)
 A3 = (   0.0000000000,   2.5818225161,  -2.5818225161)
 
   4 primitive cells build up your supercell.
 

 Routine SETGRP: Setting up the symmetry group for a 
 simple cubic supercell.


 Subroutine GETGRP returns: Found 48 space group operations
 (whereof 48 operations were pure point group operations)
 out of a pool of 48 trial point group operations.


The dynamic configuration has the point symmetry O_h .
 
 
 KPOINTS: Automatic mesh                          

Automatic generation of k-mesh.
Space group operators:
 irot       det(A)        alpha          n_x          n_y          n_z        tau_x        tau_y        tau_z
    1     1.000000     0.000001     1.000000     0.000000     0.000000     0.000000     0.000000     0.000000
    2    -1.000000     0.000001     1.000000     0.000000     0.000000     0.000000     0.000000     0.000000
    3     1.000000   120.000000    -0.577350    -0.577350    -0.577350     0.000000     0.000000     0.000000
    4    -1.000000   120.000000    -0.577350    -0.577350    -0.577350     0.000000     0.000000     0.000000
    5     1.000000   120.000000     0.577350     0.577350     0.577350     0.000000     0.000000     0.000000
    6    -1.000000   120.000000     0.577350     0.577350     0.577350     0.000000     0.000000     0.000000
    7     1.000000    90.000000     0.000000     0.000000    -1.000000     0.000000     0.000000     0.000000
    8    -1.000000    90.000000     0.000000     0.000000    -1.000000     0.000000     0.000000     0.000000
    9     1.000000   180.000000     0.000000     0.707107     0.707107     0.000000     0.000000     0.000000
   10    -1.000000   180.000000     0.000000     0.707107     0.707107     0.000000     0.000000     0.000000
   11     1.000000    90.000000     0.000000     1.000000     0.000000     0.000000     0.000000     0.000000
   12    -1.000000    90.000000     0.000000     1.000000     0.000000     0.000000     0.000000     0.000000
   13     1.000000   180.000000     0.000000     0.000000     1.000000     0.000000     0.000000     0.000000
   14    -1.000000   180.000000     0.000000     0.000000     1.000000     0.000000     0.000000     0.000000
   15     1.000000   120.000000    -0.577350     0.577350     0.577350     0.000000     0.000000     0.000000
   16    -1.000000   120.000000    -0.577350     0.577350     0.577350     0.000000     0.000000     0.000000
   17     1.000000   120.000000    -0.577350     0.577350    -0.577350     0.000000     0.000000     0.000000
   18    -1.000000   120.000000    -0.577350     0.577350    -0.577350     0.000000     0.000000     0.000000
   19     1.000000    90.000000     0.000000     0.000000     1.000000     0.000000     0.000000     0.000000
   20    -1.000000    90.000000     0.000000     0.000000     1.000000     0.000000     0.000000     0.000000
   21     1.000000    90.000000    -1.000000     0.000000     0.000000     0.000000     0.000000     0.000000
   22    -1.000000    90.000000    -1.000000     0.000000     0.000000     0.000000     0.000000     0.000000
   23     1.000000   180.000000     0.707107     0.000000     0.707107     0.000000     0.000000     0.000000
   24    -1.000000   180.000000     0.707107     0.000000     0.707107     0.000000     0.000000     0.000000
   25     1.000000   120.000000     0.577350    -0.577350     0.577350     0.000000     0.000000     0.000000
   26    -1.000000   120.000000     0.577350    -0.577350     0.577350     0.000000     0.000000     0.000000
   27     1.000000   120.000000    -0.577350    -0.577350     0.577350     0.000000     0.000000     0.000000
   28    -1.000000   120.000000    -0.577350    -0.577350     0.577350     0.000000     0.000000     0.000000
   29     1.000000   180.000000     1.000000     0.000000     0.000000     0.000000     0.000000     0.000000
   30    -1.000000   180.000000     1.000000     0.000000     0.000000     0.000000     0.000000     0.000000
   31     1.000000    90.000000     0.000000    -1.000000     0.000000     0.000000     0.000000     0.000000
   32    -1.000000    90.000000     0.000000    -1.000000     0.000000     0.000000     0.000000     0.000000
   33     1.000000   180.000000     0.707107     0.707107     0.000000     0.000000     0.000000     0.000000
   34    -1.000000   180.000000     0.707107     0.707107     0.000000     0.000000     0.000000     0.000000
   35     1.000000    90.000000     1.000000     0.000000     0.000000     0.000000     0.000000     0.000000
   36    -1.000000    90.000000     1.000000     0.000000     0.000000     0.000000     0.000000     0.000000
   37     1.000000   120.000000     0.577350    -0.577350    -0.577350     0.000000     0.000000     0.000000
   38    -1.000000   120.000000     0.577350    -0.577350    -0.577350     0.000000     0.000000     0.000000
   39     1.000000   180.000000     0.000000     1.000000     0.000000     0.000000     0.000000     0.000000
   40    -1.000000   180.000000     0.000000     1.000000     0.000000     0.000000     0.000000     0.000000
   41     1.000000   120.000000     0.577350     0.577350    -0.577350     0.000000     0.000000     0.000000
   42    -1.000000   120.000000     0.577350     0.577350    -0.577350     0.000000     0.000000     0.000000
   43     1.000000   180.000000     0.000000    -0.707107     0.707107     0.000000     0.000000     0.000000
   44    -1.000000   180.000000     0.000000    -0.707107     0.707107     0.000000     0.000000     0.000000
   45     1.000000   180.000000     0.707107    -0.707107     0.000000     0.000000     0.000000     0.000000
   46    -1.000000   180.000000     0.707107    -0.707107     0.000000     0.000000     0.000000     0.000000
   47     1.000000   180.000000     0.707107     0.000000    -0.707107     0.000000     0.000000     0.000000
   48    -1.000000   180.000000     0.707107     0.000000    -0.707107     0.000000     0.000000     0.000000
 
 Subroutine IBZKPT returns following result:
 ===========================================
 
 Found     10 irreducible k-points:
 
 Following reciprocal coordinates:
            Coordinates               Weight
  0.000000  0.000000  0.000000      1.000000
  0.250000  0.000000  0.000000      6.000000
  0.500000  0.000000  0.000000      3.000000
  0.250000  0.250000  0.000000     12.000000
  0.500000  0.250000  0.000000     12.000000
  0.500000  0.500000  0.000000      3.000000
  0.250000  0.250000  0.250000      8.000000
  0.500000  0.250000  0.250000     12.000000
  0.500000  0.500000  0.250000      6.000000
  0.500000  0.500000  0.500000      1.000000
 
 Following cartesian coordinates:
            Coordinates               Weight
  0.000000  0.000000  0.000000      1.000000
  0.048415  0.000000  0.000000      6.000000
  0.096831  0.000000  0.000000      3.000000
  0.048415  0.048415  0.000000     12.000000
  0.096831  0.048415  0.000000     12.000000
  0.096831  0.096831  0.000000      3.000000
  0.048415  0.048415  0.048415      8.000000
  0.096831  0.048415  0.048415     12.000000
  0.096831  0.096831  0.048415      6.000000
  0.096831  0.096831  0.096831      1.000000
 


--------------------------------------------------------------------------------------------------------




 Dimension of arrays:
   k-points           NKPTS =     10   k-points in BZ     NKDIM =     10   number of bands    NBANDS=     36
   number of dos      NEDOS =    301   number of ions     NIONS =      8
   non local maximal  LDIM  =      5   non local SUM 2l+1 LMDIM =     13
   total plane-waves  NPLWV =  64000
   max r-space proj   IRMAX =      1   max aug-charges    IRDMAX= 117346
   dimension x,y,z NGX =    40 NGY =   40 NGZ =   40
   dimension x,y,z NGXF=    80 NGYF=   80 NGZF=   80
   support grid    NGXF=   160 NGYF=  160 NGZF=  160
   ions per type =               4   4
 NGX,Y,Z   is equivalent  to a cutoff of  12.88, 12.88, 12.88 a.u.
 NGXF,Y,Z  is equivalent  to a cutoff of  25.76, 25.76, 25.76 a.u.


 I would recommend the setting:
   dimension x,y,z NGX =    39 NGY =   39 NGZ =   39
 SYSTEM =  unknown system                          
 POSCAR =   Mg S                                   

 Startparameter for this run:
   NWRITE =      2    write-flag & timer
   PREC   = accura    normal or accurate (medium, high low for compatibility)
   ISTART =      0    job   : 0-new  1-cont  2-samecut
   ICHARG =      2    charge: 1-file 2-atom 10-const
   ISPIN  =      1    spin polarized calculation?
   LNONCOLLINEAR =      F non collinear calculations
   LSORBIT =      F    spin-orbit coupling
   INIWAV =      1    electr: 0-lowe 1-rand  2-diag
   LASPH  =      F    aspherical Exc in radial PAW
   METAGGA=      F    non-selfconsistent MetaGGA calc.

 Electronic Relaxation 1
   ENCUT  =  525.1 eV  38.59 Ry    6.21 a.u.   9.65  9.65  9.65*2*pi/ulx,y,z
   ENINI  =  525.1     initial cutoff
   ENAUG  =  758.8 eV  augmentation charge cutoff
   NELM   =     60;   NELMIN=  5; NELMDL= -5     # of ELM steps 
   EDIFF  = 0.1E-07   stopping-criterion for ELM
   LREAL  =      F    real-space projection
   NLSPLINE    = F    spline interpolate recip. space projectors
   LCOMPAT=      F    compatible to vasp.4.4
   GGA_COMPAT  = T    GGA compatible to vasp.4.4-vasp.4.6
   LMAXPAW     = -100 max onsite density
   LMAXMIX     =    2 max onsite mixed and CHGCAR
   VOSKOWN=      0    Vosko Wilk Nusair interpolation
   ROPT   =    0.00000   0.00000
 Ionic relaxation
   EDIFFG = -.1E-07   stopping-criterion for IOM
   NSW    =     20    number of steps for IOM
   NBLOCK =      1;   KBLOCK =     20    inner block; outer block 
   IBRION =      2    ionic relax: 0-MD 1-quasi-New 2-CG
   NFREE  =      1    steps in history (QN), initial steepest desc. (CG)
   ISIF   =      4    stress and relaxation
   IWAVPR =     11    prediction:  0-non 1-charg 2-wave 3-comb
   ISYM   =      2    0-nonsym 1-usesym 2-fastsym
   LCORR  =      T    Harris-Foulkes like correction to forces

   POTIM  = 0.5000    time-step for ionic-motion
   TEIN   =    0.0    initial temperature
   TEBEG  =    0.0;   TEEND  =   0.0 temperature during run
   SMASS  =  -3.00    Nose mass-parameter (am)
   estimated Nose-frequenzy (Omega)   =  0.10E-29 period in steps =****** mass=  -0.609E-27a.u.
   SCALEE = 1.0000    scale energy and forces
   NPACO  =    256;   APACO  = 16.0  distance and # of slots for P.C.
   PSTRESS=    0.0 pullay stress

  Mass of Ions in am
   POMASS =  24.30 32.07
  Ionic Valenz
   ZVAL   =   8.00  6.00
  Atomic Wigner-Seitz radii
   RWIGS  =  -1.00 -1.00
  virtual crystal weights 
   VCA    =   1.00  1.00
   NELECT =      56.0000    total number of electrons
   NUPDOWN=      -1.0000    fix difference up-down

 DOS related values:
   EMIN   =  10.00;   EMAX   =-10.00  energy-range for DOS
   EFERMI =   0.00
   ISMEAR =     0;   SIGMA  =   0.01  broadening in eV -4-tet -1-fermi 0-gaus

 Electronic relaxation 2 (details)
   IALGO  =     38    algorithm
   LDIAG  =      T    sub-space diagonalisation (order eigenvalues)
   LSUBROT=      F    optimize rotation matrix (better conditioning)
   TURBO    =      0    0=normal 1=particle mesh
   IRESTART =      0    0=no restart 2=restart with 2 vectors
   NREBOOT  =      0    no. of reboots
   NMIN     =      0    reboot dimension
   EREF     =   0.00    reference energy to select bands
   IMIX   =      4    mixing-type and parameters
     AMIX     =   0.40;   BMIX     =  1.00
     AMIX_MAG =   1.60;   BMIX_MAG =  1.00
     AMIN     =   0.10
     WC   =   100.;   INIMIX=   1;  MIXPRE=   1;  MAXMIX= -45

 Intra band minimization:
   WEIMIN = 0.0010     energy-eigenvalue tresh-hold
   EBREAK =  0.69E-11  absolut break condition
   DEPER  =   0.30     relativ break condition  

   TIME   =   0.40     timestep for ELM

  volume/ion in A,a.u.               =      17.21       116.14
  Fermi-wavevector in a.u.,A,eV,Ry     =   1.212964  2.292169 20.017991  1.471281
  Thomas-Fermi vector in A             =   2.348431
 
 Write flags
   LWAVE  =      F    write WAVECAR
   LCHARG =      F    write CHGCAR
   LVTOT  =      F    write LOCPOT, total local potential
   LVHAR  =      F    write LOCPOT, Hartree potential only
   LELF   =      F    write electronic localiz. function (ELF)
   LORBIT =      0    0 simple, 1 ext, 2 COOP (PROOUT)


 Dipole corrections
   LMONO  =      F    monopole corrections only (constant potential shift)
   LDIPOL =      F    correct potential (dipole corrections)
   IDIPOL =      0    1-x, 2-y, 3-z, 4-all directions 
   EPSILON=  1.0000000 bulk dielectric constant

 Exchange correlation treatment:
   GGA     =    PS    GGA type
   LEXCH   =    14    internal setting for exchange type
   VOSKOWN=      0    Vosko Wilk Nusair interpolation
   LHFCALC =     F    Hartree Fock is set to
   LHFONE  =     F    Hartree Fock one center treatment
   AEXX    =    0.0000 exact exchange contribution

 Linear response parameters
   LEPSILON=     F    determine dielectric tensor
   LRPA    =     F    only Hartree local field effects (RPA)
   LNABLA  =     F    use nabla operator in PAW spheres
   LVEL    =     F    velocity operator in full k-point grid
   LINTERFAST=   F  fast interpolation
   KINTER  =     0    interpolate to denser k-point grid
   CSHIFT  =0.1000    complex shift for real part using Kramers Kronig
   OMEGAMAX=  -1.0    maximum frequency
   DEG_THRESHOLD= 0.2000000E-02 threshold for treating states as degnerate
   RTIME   =    0.100 relaxation time in fs

 Orbital magnetization related:
   ORBITALMAG=     F  switch on orbital magnetization
   LCHIMAG   =     F  perturbation theory with respect to B field
   DQ        =  0.001000  dq finite difference perturbation B field



--------------------------------------------------------------------------------------------------------


 conjugate gradient relaxation of ions
 charge density and potential will be updated during run
 non-spin polarized calculation
 Variant of blocked Davidson
 Davidson routine will perform the subspace rotation
 perform sub-space diagonalisation
    after iterative eigenvector-optimisation
 modified Broyden-mixing scheme, WC =      100.0
 initial mixing is a Kerker type mixing with AMIX =  0.4000 and BMIX =      1.0000
 Hartree-type preconditioning will be used
 using additional bands            8
 reciprocal scheme for non local part
 use partial core corrections
 calculate Harris-corrections to forces 
   (improved forces if not selfconsistent)
 use gradient corrections 
 use of overlap-Matrix (Vanderbilt PP)
 Gauss-broadening in eV      SIGMA  =   0.01


--------------------------------------------------------------------------------------------------------


  energy-cutoff  :      525.11
  volume of cell :      137.68
      direct lattice vectors                 reciprocal lattice vectors
     5.163645032  0.000000000  0.000000000     0.193661647  0.000000000  0.000000000
     0.000000000  5.163645032  0.000000000     0.000000000  0.193661647  0.000000000
     0.000000000  0.000000000  5.163645032     0.000000000  0.000000000  0.193661647

  length of vectors
     5.163645032  5.163645032  5.163645032     0.193661647  0.193661647  0.193661647


 
 k-points in units of 2pi/SCALE and weight: Automatic mesh                          
   0.00000000  0.00000000  0.00000000       0.016
   0.04841541  0.00000000  0.00000000       0.094
   0.09683082  0.00000000  0.00000000       0.047
   0.04841541  0.04841541  0.00000000       0.188
   0.09683082  0.04841541  0.00000000       0.188
   0.09683082  0.09683082  0.00000000       0.047
   0.04841541  0.04841541  0.04841541       0.125
   0.09683082  0.04841541  0.04841541       0.188
   0.09683082  0.09683082  0.04841541       0.094
   0.09683082  0.09683082  0.09683082       0.016
 
 k-points in reciprocal lattice and weights: Automatic mesh                          
   0.00000000  0.00000000  0.00000000       0.016
   0.25000000  0.00000000  0.00000000       0.094
   0.50000000  0.00000000  0.00000000       0.047
   0.25000000  0.25000000  0.00000000       0.188
   0.50000000  0.25000000  0.00000000       0.188
   0.50000000  0.50000000  0.00000000       0.047
   0.25000000  0.25000000  0.25000000       0.125
   0.50000000  0.25000000  0.25000000       0.188
   0.50000000  0.50000000  0.25000000       0.094
   0.50000000  0.50000000  0.50000000       0.016
 
 position of ions in fractional coordinates (direct lattice) 
   0.00000000  0.00000000  0.00000000
   0.00000000  0.50000000  0.50000000
   0.50000000  0.00000000  0.50000000
   0.50000000  0.50000000  0.00000000
   0.50000000  0.00000000  0.00000000
   0.50000000  0.50000000  0.50000000
   0.00000000  0.00000000  0.50000000
   0.00000000  0.50000000  0.00000000
 
 position of ions in cartesian coordinates  (Angst):
   0.00000000  0.00000000  0.00000000
   0.00000000  2.58182252  2.58182252
   2.58182252  0.00000000  2.58182252
   2.58182252  2.58182252  0.00000000
   2.58182252  0.00000000  0.00000000
   2.58182252  2.58182252  2.58182252
   0.00000000  0.00000000  2.58182252
   0.00000000  2.58182252  0.00000000
 


--------------------------------------------------------------------------------------------------------


 k-point  1 :   0.0000 0.0000 0.0000  plane waves:    3791
 k-point  2 :   0.2500 0.0000 0.0000  plane waves:    3791
 k-point  3 :   0.5000 0.0000 0.0000  plane waves:    3764
 k-point  4 :   0.2500 0.2500 0.0000  plane waves:    3748
 k-point  5 :   0.5000 0.2500 0.0000  plane waves:    3760
 k-point  6 :   0.5000 0.5000 0.0000  plane waves:    3724
 k-point  7 :   0.2500 0.2500 0.2500  plane waves:    3749
 k-point  8 :   0.5000 0.2500 0.2500  plane waves:    3758
 k-point  9 :   0.5000 0.5000 0.2500  plane waves:    3772
 k-point 10 :   0.5000 0.5000 0.5000  plane waves:    3840

 maximum and minimum number of plane-waves per node :       782      730

 maximum number of plane-waves:      3840
 maximum index in each direction: 
   IXMAX=    9   IYMAX=    9   IZMAX=    9
   IXMIN=  -10   IYMIN=  -10   IZMIN=  -10

 NGX is ok and might be reduce to  40
 NGY is ok and might be reduce to  40
 NGZ is ok and might be reduce to  40

 parallel 3D FFT for wavefunctions:
    minimum data exchange during FFTs selected (reduces bandwidth)
 parallel 3D FFT for charge:
    minimum data exchange during FFTs selected (reduces bandwidth)


 total amount of memory used by VASP on root node    39041. kBytes
========================================================================

   base      :      30000. kBytes
   nonl-proj :       1731. kBytes
   fftplans  :       4155. kBytes
   grid      :       1976. kBytes
   one-center:         16. kBytes
   wavefun   :       1163. kBytes
 
     INWAV:  cpu time    0.00: real time    0.00
 Broyden mixing: mesh for mixing (old mesh)
   NGX = 19   NGY = 19   NGZ = 19
  (NGX  = 80   NGY  = 80   NGZ  = 80)
  gives a total of   6859 points

 initial charge density was supplied:
 charge density of overlapping atoms calculated
 number of electron      56.0000000 magnetization 
 keeping initial charge density in first step


--------------------------------------------------------------------------------------------------------


 Maximum index for augmentation-charges         5999 (set IRDMAX)


--------------------------------------------------------------------------------------------------------


 First call to EWALD:  gamma=   0.343
 Maximum number of real-space cells 3x 3x 3
 Maximum number of reciprocal cells 3x 3x 3

 FEWALD executed in parallel
    FEWALD:  cpu time    0.00: real time    0.00


----------------------------------------- Iteration    1(   1)  ---------------------------------------


    POTLOK:  cpu time    0.02: real time    0.02
    SETDIJ:  cpu time    0.03: real time    0.03
     EDDAV:  cpu time    0.31: real time    0.31
       DOS:  cpu time    0.00: real time    0.00
    --------------------------------------------
      LOOP:  cpu time    0.36: real time    0.37

 eigenvalue-minimisations  :   888
 total energy-change (2. order) : 0.4683623E+03  (-0.3440871E+04)
 number of electron      56.0000000 magnetization 
 augmentation part       56.0000000 magnetization 

 Free energy of the ion-electron system (eV)
  ---------------------------------------------------
  alpha Z        PSCENC =       154.21779975
  Ewald energy   TEWEN  =     -3140.62201186
  -Hartree energ DENC   =     -1159.77785329
  -exchange      EXHF   =         0.00000000
  -V(xc)+E(xc)   XCENC  =       159.54348280
  PAW double counting   =      3462.71711756    -3919.80126840
  entropy T*S    EENTRO =        -0.00096414
  eigenvalues    EBANDS =      -409.61943853
  atomic energy  EATOM  =      5321.70543053
  ---------------------------------------------------
  free energy    TOTEN  =       468.36229441 eV

  energy without entropy =      468.36325855  energy(sigma->0) =      468.36277648


--------------------------------------------------------------------------------------------------------




----------------------------------------- Iteration    1(   2)  ---------------------------------------


     EDDAV:  cpu time    0.26: real time    0.26
       DOS:  cpu time    0.00: real time    0.00
    --------------------------------------------
      LOOP:  cpu time    0.26: real time    0.26

 eigenvalue-minimisations  :   856
 total energy-change (2. order) :-0.4716427E+03  (-0.4592209E+03)
 number of electron      56.0000000 magnetization 
 augmentation part       56.0000000 magnetization 

 Free energy of the ion-electron system (eV)
  ---------------------------------------------------
  alpha Z        PSCENC =       154.21779975
  Ewald energy   TEWEN  =     -3140.62201186
  -Hartree energ DENC   =     -1159.77785329
  -exchange      EXHF   =         0.00000000
  -V(xc)+E(xc)   XCENC  =       159.54348280
  PAW double counting   =      3462.71711756    -3919.80126840
  entropy T*S    EENTRO =        -0.00003355
  eigenvalues    EBANDS =      -881.26306842
  atomic energy  EATOM  =      5321.70543053
  ---------------------------------------------------
  free energy    TOTEN  =        -3.28040488 eV

  energy without entropy =       -3.28037134  energy(sigma->0) =       -3.28038811


--------------------------------------------------------------------------------------------------------




----------------------------------------- Iteration    1(   3)  ---------------------------------------


     EDDAV:  cpu time    0.25: real time    0.25
       DOS:  cpu time    0.00: real time    0.00
    --------------------------------------------
      LOOP:  cpu time    0.26: real time    0.26

 eigenvalue-minimisations  :   848
 total energy-change (2. order) :-0.3335183E+02  (-0.3312226E+02)
 number of electron      56.0000000 magnetization 
 augmentation part       56.0000000 magnetization 

 Free energy of the ion-electron system (eV)
  ---------------------------------------------------
  alpha Z        PSCENC =       154.21779975
  Ewald energy   TEWEN  =     -3140.62201186
  -Hartree energ DENC   =     -1159.77785329
  -exchange      EXHF   =         0.00000000
  -V(xc)+E(xc)   XCENC  =       159.54348280
  PAW double counting   =      3462.71711756    -3919.80126840
  entropy T*S    EENTRO =         0.00000000
  eigenvalues    EBANDS =      -914.61493287
  atomic energy  EATOM  =      5321.70543053
  ---------------------------------------------------
  free energy    TOTEN  =       -36.63223579 eV

  energy without entropy =      -36.63223579  energy(sigma->0) =      -36.63223579


--------------------------------------------------------------------------------------------------------




----------------------------------------- Iteration    1(   4)  ---------------------------------------


     EDDAV:  cpu time    0.27: real time    0.27
       DOS:  cpu time    0.00: real time    0.00
    --------------------------------------------
      LOOP:  cpu time    0.27: real time    0.27

 eigenvalue-minimisations  :   892
 total energy-change (2. order) :-0.1033400E+01  (-0.1031176E+01)
 number of electron      56.0000000 magnetization 
 augmentation part       56.0000000 magnetization 

 Free energy of the ion-electron system (eV)
  ---------------------------------------------------
  alpha Z        PSCENC =       154.21779975
  Ewald energy   TEWEN  =     -3140.62201186
  -Hartree energ DENC   =     -1159.77785329
  -exchange      EXHF   =         0.00000000
  -V(xc)+E(xc)   XCENC  =       159.54348280
  PAW double counting   =      3462.71711756    -3919.80126840
  entropy T*S    EENTRO =         0.00000000
  eigenvalues    EBANDS =      -915.64833245
  atomic energy  EATOM  =      5321.70543053
  ---------------------------------------------------
  free energy    TOTEN  =       -37.66563537 eV

  energy without entropy =      -37.66563537  energy(sigma->0) =      -37.66563537


--------------------------------------------------------------------------------------------------------




----------------------------------------- Iteration    1(   5)  ---------------------------------------


     EDDAV:  cpu time    0.26: real time    0.26
       DOS:  cpu time    0.00: real time    0.00
    CHARGE:  cpu time    0.06: real time    0.06
    MIXING:  cpu time    0.00: real time    0.00
    --------------------------------------------
      LOOP:  cpu time    0.32: real time    0.33

 eigenvalue-minimisations  :   872
 total energy-change (2. order) :-0.2821440E-01  (-0.2820875E-01)
 number of electron      55.9999998 magnetization 
 augmentation part       13.1800651 magnetization 

 Broyden mixing:
  rms(total) = 0.86482E+00    rms(broyden)= 0.86477E+00
  rms(prec ) = 0.14255E+01
  weight for this iteration     100.00

 Free energy of the ion-electron system (eV)
  ---------------------------------------------------
  alpha Z        PSCENC =       154.21779975
  Ewald energy   TEWEN  =     -3140.62201186
  -Hartree energ DENC   =     -1159.77785329
  -exchange      EXHF   =         0.00000000
  -V(xc)+E(xc)   XCENC  =       159.54348280
  PAW double counting   =      3462.71711756    -3919.80126840
  entropy T*S    EENTRO =         0.00000000
  eigenvalues    EBANDS =      -915.67654685
  atomic energy  EATOM  =      5321.70543053
  ---------------------------------------------------
  free energy    TOTEN  =       -37.69384977 eV

  energy without entropy =      -37.69384977  energy(sigma->0) =      -37.69384977


--------------------------------------------------------------------------------------------------------




----------------------------------------- Iteration    1(   6)  ---------------------------------------


    POTLOK:  cpu time    0.01: real time    0.02
    SETDIJ:  cpu time    0.03: real time    0.03
     EDDAV:  cpu time    0.24: real time    0.24
       DOS:  cpu time    0.00: real time    0.00
    CHARGE:  cpu time    0.06: real time    0.06
    MIXING:  cpu time    0.00: real time    0.00
    --------------------------------------------
      LOOP:  cpu time    0.35: real time    0.35

 eigenvalue-minimisations  :   772
 total energy-change (2. order) : 0.1304769E+01  (-0.2569637E+00)
 number of electron      55.9999998 magnetization 
 augmentation part       13.3377650 magnetization 

 Broyden mixing:
  rms(total) = 0.63881E+00    rms(broyden)= 0.63880E+00
  rms(prec ) = 0.78359E+00
  weight for this iteration     100.00

 eigenvalues of (default mixing * dielectric matrix)
  average eigenvalue GAMMA=   2.0480
  2.0480

 Free energy of the ion-electron system (eV)
  ---------------------------------------------------
  alpha Z        PSCENC =       154.21779975
  Ewald energy   TEWEN  =     -3140.62201186
  -Hartree energ DENC   =     -1158.27047331
  -exchange      EXHF   =         0.00000000
  -V(xc)+E(xc)   XCENC  =       160.63406902
  PAW double counting   =      3743.87712004    -4197.43261035
  entropy T*S    EENTRO =         0.00000000
  eigenvalues    EBANDS =      -920.49840453
  atomic energy  EATOM  =      5321.70543053
  ---------------------------------------------------
  free energy    TOTEN  =       -36.38908072 eV

  energy without entropy =      -36.38908072  energy(sigma->0) =      -36.38908072


--------------------------------------------------------------------------------------------------------




----------------------------------------- Iteration    1(   7)  ---------------------------------------


    POTLOK:  cpu time    0.02: real time    0.02
    SETDIJ:  cpu time    0.03: real time    0.03
     EDDAV:  cpu time    0.27: real time    0.27
       DOS:  cpu time    0.00: real time    0.00
    CHARGE:  cpu time    0.06: real time    0.06
    MIXING:  cpu time    0.00: real time    0.00
    --------------------------------------------
      LOOP:  cpu time    0.38: real time    0.39

 eigenvalue-minimisations  :   900
 total energy-change (2. order) : 0.1587108E+00  (-0.7674694E-01)
 number of electron      55.9999998 magnetization 
 augmentation part       13.4246259 magnetization 

 Broyden mixing:
  rms(total) = 0.36068E+00    rms(broyden)= 0.36068E+00
  rms(prec ) = 0.38686E+00
  weight for this iteration     100.00

 eigenvalues of (default mixing * dielectric matrix)
  average eigenvalue GAMMA=   2.2500
  1.4460  3.0539

 Free energy of the ion-electron system (eV)
  ---------------------------------------------------
  alpha Z        PSCENC =       154.21779975
  Ewald energy   TEWEN  =     -3140.62201186
  -Hartree energ DENC   =     -1155.06095037
  -exchange      EXHF   =         0.00000000
  -V(xc)+E(xc)   XCENC  =       161.38829913
  PAW double counting   =      4249.97461586    -4702.25183718
  entropy T*S    EENTRO =         0.00000000
  eigenvalues    EBANDS =      -925.58171575
  atomic energy  EATOM  =      5321.70543053
  ---------------------------------------------------
  free energy    TOTEN  =       -36.23036989 eV

  energy without entropy =      -36.23036989  energy(sigma->0) =      -36.23036989


--------------------------------------------------------------------------------------------------------




----------------------------------------- Iteration    1(   8)  ---------------------------------------


    POTLOK:  cpu time    0.02: real time    0.02
    SETDIJ:  cpu time    0.03: real time    0.03
     EDDAV:  cpu time    0.24: real time    0.24
       DOS:  cpu time    0.00: real time    0.00
    CHARGE:  cpu time    0.06: real time    0.06
    MIXING:  cpu time    0.00: real time    0.00
    --------------------------------------------
      LOOP:  cpu time    0.35: real time    0.35

 eigenvalue-minimisations  :   780
 total energy-change (2. order) : 0.6426116E-02  (-0.4972089E-02)
 number of electron      55.9999998 magnetization 
 augmentation part       13.4065084 magnetization 

 Broyden mixing:
  rms(total) = 0.10311E+00    rms(broyden)= 0.10311E+00
  rms(prec ) = 0.10668E+00
  weight for this iteration     100.00

 eigenvalues of (default mixing * dielectric matrix)
  average eigenvalue GAMMA=   1.5980
  2.4874  0.9090  1.3977

 Free energy of the ion-electron system (eV)
  ---------------------------------------------------
  alpha Z        PSCENC =       154.21779975
  Ewald energy   TEWEN  =     -3140.62201186
  -Hartree energ DENC   =     -1150.61057220
  -exchange      EXHF   =         0.00000000
  -V(xc)+E(xc)   XCENC  =       161.58888230
  PAW double counting   =      4862.78483793    -5316.03839659
  entropy T*S    EENTRO =         0.00000000
  eigenvalues    EBANDS =      -929.24991363
  atomic energy  EATOM  =      5321.70543053
  ---------------------------------------------------
  free energy    TOTEN  =       -36.22394378 eV

  energy without entropy =      -36.22394378  energy(sigma->0) =      -36.22394378


--------------------------------------------------------------------------------------------------------




----------------------------------------- Iteration    1(   9)  ---------------------------------------


    POTLOK:  cpu time    0.02: real time    0.02
    SETDIJ:  cpu time    0.03: real time    0.03
     EDDAV:  cpu time    0.28: real time    0.28
       DOS:  cpu time    0.00: real time    0.00
    CHARGE:  cpu time    0.06: real time    0.06
    MIXING:  cpu time    0.00: real time    0.00
    --------------------------------------------
      LOOP:  cpu time    0.39: real time    0.39

 eigenvalue-minimisations  :   896
 total energy-change (2. order) : 0.7950545E-03  (-0.2412138E-03)
 number of electron      55.9999998 magnetization 
 augmentation part       13.4102547 magnetization 

 Broyden mixing:
  rms(total) = 0.26727E-01    rms(broyden)= 0.26727E-01
  rms(prec ) = 0.27840E-01
  weight for this iteration     100.00

 eigenvalues of (default mixing * dielectric matrix)
  average eigenvalue GAMMA=   1.8293
  2.6211  2.2170  1.1084  1.3709

 Free energy of the ion-electron system (eV)
  ---------------------------------------------------
  alpha Z        PSCENC =       154.21779975
  Ewald energy   TEWEN  =     -3140.62201186
  -Hartree energ DENC   =     -1151.15994490
  -exchange      EXHF   =         0.00000000
  -V(xc)+E(xc)   XCENC  =       161.56646412
  PAW double counting   =      4748.36245762    -5201.42940095
  entropy T*S    EENTRO =         0.00000000
  eigenvalues    EBANDS =      -928.86394302
  atomic energy  EATOM  =      5321.70543053
  ---------------------------------------------------
  free energy    TOTEN  =       -36.22314872 eV

  energy without entropy =      -36.22314872  energy(sigma->0) =      -36.22314872


--------------------------------------------------------------------------------------------------------




----------------------------------------- Iteration    1(  10)  ---------------------------------------


    POTLOK:  cpu time    0.02: real time    0.02
    SETDIJ:  cpu time    0.03: real time    0.03
     EDDAV:  cpu time    0.27: real time    0.28
       DOS:  cpu time    0.00: real time    0.00
    CHARGE:  cpu time    0.06: real time    0.06
    MIXING:  cpu time    0.00: real time    0.00
    --------------------------------------------
      LOOP:  cpu time    0.38: real time    0.39

 eigenvalue-minimisations  :   896
 total energy-change (2. order) :-0.3426264E-04  (-0.5495690E-04)
 number of electron      55.9999998 magnetization 
 augmentation part       13.4127187 magnetization 

 Broyden mixing:
  rms(total) = 0.18029E-02    rms(broyden)= 0.18029E-02
  rms(prec ) = 0.34026E-02
  weight for this iteration     100.00

 eigenvalues of (default mixing * dielectric matrix)
  average eigenvalue GAMMA=   1.6874
  2.7124  2.4837  1.3356  1.0558  0.8496

 Free energy of the ion-electron system (eV)
  ---------------------------------------------------
  alpha Z        PSCENC =       154.21779975
  Ewald energy   TEWEN  =     -3140.62201186
  -Hartree energ DENC   =     -1150.91776082
  -exchange      EXHF   =         0.00000000
  -V(xc)+E(xc)   XCENC  =       161.56717638
  PAW double counting   =      4707.82129325    -5160.88874701
  entropy T*S    EENTRO =         0.00000000
  eigenvalues    EBANDS =      -929.10636319
  atomic energy  EATOM  =      5321.70543053
  ---------------------------------------------------
  free energy    TOTEN  =       -36.22318299 eV

  energy without entropy =      -36.22318299  energy(sigma->0) =      -36.22318299


--------------------------------------------------------------------------------------------------------




----------------------------------------- Iteration    1(  11)  ---------------------------------------


    POTLOK:  cpu time    0.01: real time    0.02
    SETDIJ:  cpu time    0.03: real time    0.03
     EDDAV:  cpu time    0.24: real time    0.24
       DOS:  cpu time    0.00: real time    0.00
    CHARGE:  cpu time    0.06: real time    0.06
    MIXING:  cpu time    0.00: real time    0.00
    --------------------------------------------
      LOOP:  cpu time    0.35: real time    0.35

 eigenvalue-minimisations  :   792
 total energy-change (2. order) : 0.7133932E-05  (-0.3517883E-05)
 number of electron      55.9999998 magnetization 
 augmentation part       13.4122250 magnetization 

 Broyden mixing:
  rms(total) = 0.19537E-02    rms(broyden)= 0.19537E-02
  rms(prec ) = 0.20505E-02
  weight for this iteration     100.00

 eigenvalues of (default mixing * dielectric matrix)
  average eigenvalue GAMMA=   1.6588
  2.7300  2.4463  1.4281  0.9986  1.1750  1.1750

 Free energy of the ion-electron system (eV)
  ---------------------------------------------------
  alpha Z        PSCENC =       154.21779975
  Ewald energy   TEWEN  =     -3140.62201186
  -Hartree energ DENC   =     -1150.87135602
  -exchange      EXHF   =         0.00000000
  -V(xc)+E(xc)   XCENC  =       161.56368455
  PAW double counting   =      4704.18091683    -5157.27561525
  entropy T*S    EENTRO =         0.00000000
  eigenvalues    EBANDS =      -929.12202438
  atomic energy  EATOM  =      5321.70543053
  ---------------------------------------------------
  free energy    TOTEN  =       -36.22317585 eV

  energy without entropy =      -36.22317585  energy(sigma->0) =      -36.22317585


--------------------------------------------------------------------------------------------------------




----------------------------------------- Iteration    1(  12)  ---------------------------------------


    POTLOK:  cpu time    0.02: real time    0.02
    SETDIJ:  cpu time    0.03: real time    0.03
     EDDAV:  cpu time    0.27: real time    0.27
       DOS:  cpu time    0.00: real time    0.00
    CHARGE:  cpu time    0.06: real time    0.06
    MIXING:  cpu time    0.00: real time    0.00
    --------------------------------------------
      LOOP:  cpu time    0.38: real time    0.38

 eigenvalue-minimisations  :   888
 total energy-change (2. order) : 0.6225164E-06  (-0.2093793E-06)
 number of electron      55.9999998 magnetization 
 augmentation part       13.4120546 magnetization 

 Broyden mixing:
  rms(total) = 0.19179E-03    rms(broyden)= 0.19178E-03
  rms(prec ) = 0.25532E-03
  weight for this iteration     100.00

 eigenvalues of (default mixing * dielectric matrix)
  average eigenvalue GAMMA=   1.7029
  2.8022  2.5789  2.2337  1.2140  1.2140  0.9388  0.9388

 Free energy of the ion-electron system (eV)
  ---------------------------------------------------
  alpha Z        PSCENC =       154.21779975
  Ewald energy   TEWEN  =     -3140.62201186
  -Hartree energ DENC   =     -1150.87776155
  -exchange      EXHF   =         0.00000000
  -V(xc)+E(xc)   XCENC  =       161.56416129
  PAW double counting   =      4706.28281539    -5159.38412858
  entropy T*S    EENTRO =         0.00000000
  eigenvalues    EBANDS =      -929.10948019
  atomic energy  EATOM  =      5321.70543053
  ---------------------------------------------------
  free energy    TOTEN  =       -36.22317523 eV

  energy without entropy =      -36.22317523  energy(sigma->0) =      -36.22317523


--------------------------------------------------------------------------------------------------------




----------------------------------------- Iteration    1(  13)  ---------------------------------------


    POTLOK:  cpu time    0.01: real time    0.02
    SETDIJ:  cpu time    0.03: real time    0.03
     EDDAV:  cpu time    0.28: real time    0.28
       DOS:  cpu time    0.00: real time    0.00
    CHARGE:  cpu time    0.06: real time    0.06
    MIXING:  cpu time    0.00: real time    0.00
    --------------------------------------------
      LOOP:  cpu time    0.38: real time    0.39

 eigenvalue-minimisations  :   904
 total energy-change (2. order) : 0.1126409E-07  (-0.1159593E-07)
 number of electron      55.9999998 magnetization 
 augmentation part       13.4120161 magnetization 

 Broyden mixing:
  rms(total) = 0.10685E-03    rms(broyden)= 0.10685E-03
  rms(prec ) = 0.11001E-03
  weight for this iteration     100.00

 eigenvalues of (default mixing * dielectric matrix)
  average eigenvalue GAMMA=   1.7072
  3.0211  2.6223  2.4160  1.4174  1.1883  1.1883  0.9965  0.8077

 Free energy of the ion-electron system (eV)
  ---------------------------------------------------
  alpha Z        PSCENC =       154.21779975
  Ewald energy   TEWEN  =     -3140.62201186
  -Hartree energ DENC   =     -1150.88161740
  -exchange      EXHF   =         0.00000000
  -V(xc)+E(xc)   XCENC  =       161.56411991
  PAW double counting   =      4706.48054996    -5159.58390547
  entropy T*S    EENTRO =         0.00000000
  eigenvalues    EBANDS =      -929.10354063
  atomic energy  EATOM  =      5321.70543053
  ---------------------------------------------------
  free energy    TOTEN  =       -36.22317522 eV

  energy without entropy =      -36.22317522  energy(sigma->0) =      -36.22317522


--------------------------------------------------------------------------------------------------------




----------------------------------------- Iteration    1(  14)  ---------------------------------------


    POTLOK:  cpu time    0.02: real time    0.02
    SETDIJ:  cpu time    0.03: real time    0.03
     EDDAV:  cpu time    0.24: real time    0.24
       DOS:  cpu time    0.00: real time    0.00
    CHARGE:  cpu time    0.06: real time    0.06
    MIXING:  cpu time    0.00: real time    0.00
    --------------------------------------------
      LOOP:  cpu time    0.35: real time    0.35

 eigenvalue-minimisations  :   760
 total energy-change (2. order) : 0.5186121E-07  (-0.1501336E-08)
 number of electron      55.9999998 magnetization 
 augmentation part       13.4120052 magnetization 

 Broyden mixing:
  rms(total) = 0.14965E-03    rms(broyden)= 0.14965E-03
  rms(prec ) = 0.15732E-03
  weight for this iteration     100.00

 eigenvalues of (default mixing * dielectric matrix)
  average eigenvalue GAMMA=   1.7242
  2.8429  2.7414  2.5106  1.9971  1.2586  1.2586  1.0164  1.0164  0.8758

 Free energy of the ion-electron system (eV)
  ---------------------------------------------------
  alpha Z        PSCENC =       154.21779975
  Ewald energy   TEWEN  =     -3140.62201186
  -Hartree energ DENC   =     -1150.88209473
  -exchange      EXHF   =         0.00000000
  -V(xc)+E(xc)   XCENC  =       161.56408413
  PAW double counting   =      4706.52925132    -5159.63249270
  entropy T*S    EENTRO =         0.00000000
  eigenvalues    EBANDS =      -929.10314159
  atomic energy  EATOM  =      5321.70543053
  ---------------------------------------------------
  free energy    TOTEN  =       -36.22317517 eV

  energy without entropy =      -36.22317517  energy(sigma->0) =      -36.22317517


--------------------------------------------------------------------------------------------------------




----------------------------------------- Iteration    1(  15)  ---------------------------------------


    POTLOK:  cpu time    0.01: real time    0.02
    SETDIJ:  cpu time    0.03: real time    0.03
     EDDAV:  cpu time    0.22: real time    0.22
       DOS:  cpu time    0.00: real time    0.00
    CHARGE:  cpu time    0.06: real time    0.06
    MIXING:  cpu time    0.00: real time    0.00
    --------------------------------------------
      LOOP:  cpu time    0.33: real time    0.34

 eigenvalue-minimisations  :   700
 total energy-change (2. order) :-0.3956393E-07  (-0.1318159E-08)
 number of electron      55.9999998 magnetization 
 augmentation part       13.4120188 magnetization 

 Broyden mixing:
  rms(total) = 0.10137E-04    rms(broyden)= 0.10137E-04
  rms(prec ) = 0.10238E-04
  weight for this iteration     100.00

 eigenvalues of (default mixing * dielectric matrix)
  average eigenvalue GAMMA=   1.7361
  2.9347  2.6122  2.6122  2.1527  1.6951  1.2368  1.2368  0.9958  0.9958  0.8885

 Free energy of the ion-electron system (eV)
  ---------------------------------------------------
  alpha Z        PSCENC =       154.21779975
  Ewald energy   TEWEN  =     -3140.62201186
  -Hartree energ DENC   =     -1150.88253297
  -exchange      EXHF   =         0.00000000
  -V(xc)+E(xc)   XCENC  =       161.56409969
  PAW double counting   =      4706.36094452    -5159.46356704
  entropy T*S    EENTRO =         0.00000000
  eigenvalues    EBANDS =      -929.10333782
  atomic energy  EATOM  =      5321.70543053
  ---------------------------------------------------
  free energy    TOTEN  =       -36.22317521 eV

  energy without entropy =      -36.22317521  energy(sigma->0) =      -36.22317521


--------------------------------------------------------------------------------------------------------




----------------------------------------- Iteration    1(  16)  ---------------------------------------


    POTLOK:  cpu time    0.01: real time    0.02
    SETDIJ:  cpu time    0.03: real time    0.03
     EDDAV:  cpu time    0.16: real time    0.16
       DOS:  cpu time    0.00: real time    0.00
    --------------------------------------------
      LOOP:  cpu time    0.21: real time    0.21

 eigenvalue-minimisations  :   420
 total energy-change (2. order) : 0.3601599E-09  (-0.2314063E-10)
 number of electron      55.9999998 magnetization 
 augmentation part       13.4120188 magnetization 

 Free energy of the ion-electron system (eV)
  ---------------------------------------------------
  alpha Z        PSCENC =       154.21779975
  Ewald energy   TEWEN  =     -3140.62201186
  -Hartree energ DENC   =     -1150.88258467
  -exchange      EXHF   =         0.00000000
  -V(xc)+E(xc)   XCENC  =       161.56410259
  PAW double counting   =      4706.35305327    -5159.45571055
  entropy T*S    EENTRO =         0.00000000
  eigenvalues    EBANDS =      -929.10325426
  atomic energy  EATOM  =      5321.70543053
  ---------------------------------------------------
  free energy    TOTEN  =       -36.22317521 eV

  energy without entropy =      -36.22317521  energy(sigma->0) =      -36.22317521


--------------------------------------------------------------------------------------------------------




 average (electrostatic) potential at core
  the test charge radii are     0.8294  0.9698
  (the norm of the test charge is              1.0000)
       1 -42.4805       2 -42.4805       3 -42.4805       4 -42.4805       5 -86.2255
       6 -86.2255       7 -86.2255       8 -86.2255
 
 
 
 E-fermi :   3.7938     XC(G=0): -10.1136     alpha+bet :-10.7091


 k-point     1 :       0.0000    0.0000    0.0000
  band No.  band energies     occupation 
      1     -37.5328      2.00000
      2     -37.5328      2.00000
      3     -37.5328      2.00000
      4     -37.5287      2.00000
      5     -37.5287      2.00000
      6     -37.5287      2.00000
      7     -37.5287      2.00000
      8     -37.5287      2.00000
      9     -37.5287      2.00000
     10     -37.5257      2.00000
     11     -37.5257      2.00000
     12     -37.5257      2.00000
     13      -9.1429      2.00000
     14      -7.3593      2.00000
     15      -7.3593      2.00000
     16      -7.3593      2.00000
     17      -0.6959      2.00000
     18      -0.6959      2.00000
     19      -0.6959      2.00000
     20       1.9203      2.00000
     21       1.9203      2.00000
     22       1.9203      2.00000
     23       1.9203      2.00000
     24       1.9203      2.00000
     25       1.9203      2.00000
     26       3.6773      2.00000
     27       3.6773      2.00000
     28       3.6773      2.00000
     29       6.4326      0.00000
     30       6.4326      0.00000
     31       6.4326      0.00000
     32       7.4531      0.00000
     33       7.8469      0.00000
     34       7.8469      0.00000
     35       7.8469      0.00000
     36      11.5136      0.00000

 k-point     2 :       0.2500    0.0000    0.0000
  band No.  band energies     occupation 
      1     -37.5322      2.00000
      2     -37.5322      2.00000
      3     -37.5318      2.00000
      4     -37.5293      2.00000
      5     -37.5293      2.00000
      6     -37.5288      2.00000
      7     -37.5288      2.00000
      8     -37.5283      2.00000
      9     -37.5283      2.00000
     10     -37.5267      2.00000
     11     -37.5261      2.00000
     12     -37.5261      2.00000
     13      -8.9308      2.00000
     14      -7.6885      2.00000
     15      -7.3332      2.00000
     16      -7.3332      2.00000
     17      -0.4376      2.00000
     18      -0.4376      2.00000
     19      -0.2045      2.00000
     20       1.3172      2.00000
     21       1.3172      2.00000
     22       1.5326      2.00000
     23       1.5326      2.00000
     24       2.1180      2.00000
     25       2.1180      2.00000
     26       2.6377      2.00000
     27       3.3340      2.00000
     28       3.3340      2.00000
     29       7.0797      0.00000
     30       7.4780      0.00000
     31       7.4780      0.00000
     32       8.1683      0.00000
     33       8.6140      0.00000
     34       8.9963      0.00000
     35       8.9963      0.00000
     36      10.5169      0.00000

 k-point     3 :       0.5000    0.0000    0.0000
  band No.  band energies     occupation 
      1     -37.5307      2.00000
      2     -37.5307      2.00000
      3     -37.5307      2.00000
      4     -37.5307      2.00000
      5     -37.5295      2.00000
      6     -37.5295      2.00000
      7     -37.5287      2.00000
      8     -37.5287      2.00000
      9     -37.5272      2.00000
     10     -37.5272      2.00000
     11     -37.5272      2.00000
     12     -37.5272      2.00000
     13      -8.3644      2.00000
     14      -8.3644      2.00000
     15      -7.3067      2.00000
     16      -7.3067      2.00000
     17       0.2986      2.00000
     18       0.2986      2.00000
     19       0.2986      2.00000
     20       0.2986      2.00000
     21       1.0368      2.00000
     22       1.0368      2.00000
     23       1.2170      2.00000
     24       1.2170      2.00000
     25       2.6589      2.00000
     26       2.6589      2.00000
     27       2.6589      2.00000
     28       2.6589      2.00000
     29       8.7036      0.00000
     30       8.7036      0.00000
     31       8.9806      0.00000
     32       8.9806      0.00000
     33       9.1074      0.00000
     34       9.1074      0.00000
     35      11.5535      0.00000
     36      11.5537      0.00000

 k-point     4 :       0.2500    0.2500    0.0000
  band No.  band energies     occupation 
      1     -37.5318      2.00000
      2     -37.5318      2.00000
      3     -37.5316      2.00000
      4     -37.5302      2.00000
      5     -37.5288      2.00000
      6     -37.5288      2.00000
      7     -37.5281      2.00000
      8     -37.5281      2.00000
      9     -37.5281      2.00000
     10     -37.5281      2.00000
     11     -37.5265      2.00000
     12     -37.5258      2.00000
     13      -8.7318      2.00000
     14      -7.6112      2.00000
     15      -7.6112      2.00000
     16      -7.3561      2.00000
     17      -0.2288      2.00000
     18      -0.2288      2.00000
     19      -0.1826      2.00000
     20       0.3548      2.00000
     21       1.5366      2.00000
     22       1.5366      2.00000
     23       1.6683      2.00000
     24       2.0112      2.00000
     25       2.0112      2.00000
     26       2.2497      2.00000
     27       2.9230      2.00000
     28       3.5602      2.00000
     29       7.5280      0.00000
     30       8.0273      0.00000
     31       8.0273      0.00000
     32       9.1092      0.00000
     33       9.2701      0.00000
     34       9.2701      0.00000
     35      10.3112      0.00000
     36      10.7699      0.00000

 k-point     5 :       0.5000    0.2500    0.0000
  band No.  band energies     occupation 
      1     -37.5313      2.00000
      2     -37.5313      2.00000
      3     -37.5304      2.00000
      4     -37.5304      2.00000
      5     -37.5302      2.00000
      6     -37.5302      2.00000
      7     -37.5278      2.00000
      8     -37.5278      2.00000
      9     -37.5277      2.00000
     10     -37.5277      2.00000
     11     -37.5267      2.00000
     12     -37.5267      2.00000
     13      -8.2098      2.00000
     14      -8.2098      2.00000
     15      -7.4560      2.00000
     16      -7.4560      2.00000
     17      -0.1798      2.00000
     18      -0.1798      2.00000
     19       0.4982      2.00000
     20       0.4982      2.00000
     21       0.5417      2.00000
     22       0.5417      2.00000
     23       2.1438      2.00000
     24       2.1438      2.00000
     25       2.1528      2.00000
     26       2.1528      2.00000
     27       2.9614      2.00000
     28       2.9614      2.00000
     29       8.9142      0.00000
     30       8.9142      0.00000
     31       9.5086      0.00000
     32       9.5086      0.00000
     33      10.0248      0.00000
     34      10.0248      0.00000
     35      10.7451      0.00000
     36      10.8131      0.00000

 k-point     6 :       0.5000    0.5000    0.0000
  band No.  band energies     occupation 
      1     -37.5313      2.00000
      2     -37.5313      2.00000
      3     -37.5313      2.00000
      4     -37.5313      2.00000
      5     -37.5289      2.00000
      6     -37.5289      2.00000
      7     -37.5289      2.00000
      8     -37.5289      2.00000
      9     -37.5267      2.00000
     10     -37.5267      2.00000
     11     -37.5267      2.00000
     12     -37.5267      2.00000
     13      -7.8312      2.00000
     14      -7.8312      2.00000
     15      -7.8312      2.00000
     16      -7.8312      2.00000
     17      -0.1575      2.00000
     18      -0.1575      2.00000
     19      -0.1575      2.00000
     20      -0.1575      2.00000
     21       1.2263      2.00000
     22       1.2263      2.00000
     23       1.2263      2.00000
     24       1.2263      2.00000
     25       3.0074      2.00000
     26       3.0074      2.00000
     27       3.0074      2.00000
     28       3.0074      2.00000
     29       9.2876      0.00000
     30       9.2876      0.00000
     31       9.2876      0.00000
     32       9.2876      0.00000
     33      11.3642      0.00000
     34      11.3741      0.00000
     35      11.3951      0.00000
     36      11.4065      0.00000

 k-point     7 :       0.2500    0.2500    0.2500
  band No.  band energies     occupation 
      1     -37.5321      2.00000
      2     -37.5321      2.00000
      3     -37.5321      2.00000
      4     -37.5297      2.00000
      5     -37.5288      2.00000
      6     -37.5288      2.00000
      7     -37.5288      2.00000
      8     -37.5277      2.00000
      9     -37.5277      2.00000
     10     -37.5277      2.00000
     11     -37.5262      2.00000
     12     -37.5262      2.00000
     13      -8.5490      2.00000
     14      -7.5759      2.00000
     15      -7.5759      2.00000
     16      -7.5759      2.00000
     17      -0.5265      2.00000
     18      -0.5265      2.00000
     19      -0.5265      2.00000
     20       0.7703      2.00000
     21       1.3607      2.00000
     22       1.3607      2.00000
     23       1.3607      2.00000
     24       2.4130      2.00000
     25       2.4130      2.00000
     26       2.4130      2.00000
     27       3.3338      2.00000
     28       3.3338      2.00000
     29       8.0269      0.00000
     30       8.0269      0.00000
     31       8.0269      0.00000
     32       8.5898      0.00000
     33      10.3689      0.00000
     34      10.3689      0.00000
     35      10.3689      0.00000
     36      11.4414      0.00000

 k-point     8 :       0.5000    0.2500    0.2500
  band No.  band energies     occupation 
      1     -37.5325      2.00000
      2     -37.5325      2.00000
      3     -37.5315      2.00000
      4     -37.5315      2.00000
      5     -37.5288      2.00000
      6     -37.5288      2.00000
      7     -37.5275      2.00000
      8     -37.5275      2.00000
      9     -37.5269      2.00000
     10     -37.5269      2.00000
     11     -37.5269      2.00000
     12     -37.5269      2.00000
     13      -8.0817      2.00000
     14      -8.0817      2.00000
     15      -7.5396      2.00000
     16      -7.5396      2.00000
     17      -0.8017      2.00000
     18      -0.8017      2.00000
     19      -0.2139      2.00000
     20      -0.2139      2.00000
     21       1.4325      2.00000
     22       1.4325      2.00000
     23       2.4654      2.00000
     24       2.4654      2.00000
     25       2.7092      2.00000
     26       2.7092      2.00000
     27       2.8424      2.00000
     28       2.8424      2.00000
     29       8.8896      0.00000
     30       8.8896      0.00000
     31       9.2363      0.00000
     32       9.2363      0.00000
     33       9.7141      0.00000
     34       9.7141      0.00000
     35      10.2686      0.00000
     36      10.2686      0.00000

 k-point     9 :       0.5000    0.5000    0.2500
  band No.  band energies     occupation 
      1     -37.5328      2.00000
      2     -37.5328      2.00000
      3     -37.5328      2.00000
      4     -37.5328      2.00000
      5     -37.5276      2.00000
      6     -37.5276      2.00000
      7     -37.5276      2.00000
      8     -37.5276      2.00000
      9     -37.5268      2.00000
     10     -37.5268      2.00000
     11     -37.5268      2.00000
     12     -37.5268      2.00000
     13      -7.7890      2.00000
     14      -7.7890      2.00000
     15      -7.7890      2.00000
     16      -7.7890      2.00000
     17      -0.8990      2.00000
     18      -0.8990      2.00000
     19      -0.8990      2.00000
     20      -0.8990      2.00000
     21       2.2477      2.00000
     22       2.2477      2.00000
     23       2.2477      2.00000
     24       2.2477      2.00000
     25       3.0281      2.00000
     26       3.0281      2.00000
     27       3.0281      2.00000
     28       3.0281      2.00000
     29       8.9354      0.00000
     30       8.9354      0.00000
     31       8.9354      0.00000
     32       8.9354      0.00000
     33      10.1367      0.00000
     34      10.1367      0.00000
     35      10.1367      0.00000
     36      10.1367      0.00000

 k-point    10 :       0.5000    0.5000    0.5000
  band No.  band energies     occupation 
      1     -37.5338      2.00000
      2     -37.5338      2.00000
      3     -37.5338      2.00000
      4     -37.5338      2.00000
      5     -37.5269      2.00000
      6     -37.5269      2.00000
      7     -37.5269      2.00000
      8     -37.5269      2.00000
      9     -37.5269      2.00000
     10     -37.5269      2.00000
     11     -37.5269      2.00000
     12     -37.5269      2.00000
     13      -7.7452      2.00000
     14      -7.7452      2.00000
     15      -7.7452      2.00000
     16      -7.7452      2.00000
     17      -1.3425      2.00000
     18      -1.3425      2.00000
     19      -1.3425      2.00000
     20      -1.3425      2.00000
     21       3.0493      2.00000
     22       3.0493      2.00000
     23       3.0493      2.00000
     24       3.0493      2.00000
     25       3.0493      2.00000
     26       3.0493      2.00000
     27       3.0493      2.00000
     28       3.0493      2.00000
     29       8.1111      0.00000
     30       8.1111      0.00000
     31       8.1111      0.00000
     32       8.1111      0.00000
     33      10.5320      0.00000
     34      10.5320      0.00000
     35      10.5320      0.00000
     36      10.5320      0.00000


--------------------------------------------------------------------------------------------------------


 soft charge-density along one line, spin component           1
         0         1         2         3         4         5         6         7         8         9
 total charge-density along one line
 
 pseudopotential strength for first ion, spin component:           1
-49.080   0.000   0.000   5.937   0.000   0.000   0.000   0.000
  0.000 -49.080   0.000   0.000   5.937   0.000   0.000   0.000
  0.000   0.000 -49.080   0.000   0.000   5.937   0.000   0.000
  5.937   0.000   0.000   4.646   0.000   0.000   0.000   0.000
  0.000   5.937   0.000   0.000   4.646   0.000   0.000   0.000
  0.000   0.000   5.937   0.000   0.000   4.646   0.000   0.000
  0.000   0.000   0.000   0.000   0.000   0.000   2.963 -10.866
  0.000   0.000   0.000   0.000   0.000   0.000 -10.866  45.227
  0.000   0.000   0.000   0.000   0.000   0.000   0.000   0.000
  0.000   0.000   0.000   0.000   0.000   0.000   0.000   0.000
  0.000   0.000   0.000   0.000   0.000   0.000   0.000   0.000
  0.000   0.000   0.000   0.000   0.000   0.000   0.000   0.000
  0.000   0.000   0.000   0.000   0.000   0.000   0.000   0.000
 total augmentation occupancy for first ion, spin component:           1
  2.002   0.000   0.000   0.000   0.000   0.000   0.000   0.000   0.000   0.000   0.000   0.000   0.000
  0.000   2.002   0.000   0.000   0.000   0.000   0.000   0.000   0.000   0.000   0.000   0.000   0.000
  0.000   0.000   2.002   0.000   0.000   0.000   0.000   0.000   0.000   0.000   0.000   0.000   0.000
  0.000   0.000   0.000   0.059   0.000   0.000   0.000   0.000   0.000   0.000   0.000   0.000   0.000
  0.000   0.000   0.000   0.000   0.059   0.000   0.000   0.000   0.000   0.000   0.000   0.000   0.000
  0.000   0.000   0.000   0.000   0.000   0.059   0.000   0.000   0.000   0.000   0.000   0.000   0.000
  0.000   0.000   0.000   0.000   0.000   0.000   0.805   0.011   0.000   0.000   0.000   0.000   0.000
  0.000   0.000   0.000   0.000   0.000   0.000   0.011   0.000   0.000   0.000   0.000   0.000   0.000
  0.000   0.000   0.000   0.000   0.000   0.000   0.000   0.000   0.006   0.000   0.000   0.000   0.000
  0.000   0.000   0.000   0.000   0.000   0.000   0.000   0.000   0.000   0.006   0.000   0.000   0.000
  0.000   0.000   0.000   0.000   0.000   0.000   0.000   0.000   0.000   0.000   0.030   0.000   0.000
  0.000   0.000   0.000   0.000   0.000   0.000   0.000   0.000   0.000   0.000   0.000   0.006   0.000
  0.000   0.000   0.000   0.000   0.000   0.000   0.000   0.000   0.000   0.000   0.000   0.000   0.030


------------------------ aborting loop because EDIFF is reached ----------------------------------------


    CHARGE:  cpu time    0.06: real time    0.06
    FORLOC:  cpu time    0.00: real time    0.00
    FORNL :  cpu time    0.22: real time    0.22
    STRESS:  cpu time    0.64: real time    0.64
    FORCOR:  cpu time    0.02: real time    0.02
    FORHAR:  cpu time    0.01: real time    0.01
    MIXING:  cpu time    0.00: real time    0.00
    OFIELD:  cpu time    0.00: real time    0.00

  FORCE on cell =-STRESS in cart. coord.  units (eV):
  Direction    XX          YY          ZZ          XY          YZ          ZX
  --------------------------------------------------------------------------------------
  Alpha Z   154.21780   154.21780   154.21780
  Ewald   -1046.87560 -1046.87560 -1046.87560     0.00000     0.00000     0.00000
  Hartree   383.62754   383.62754   383.62754     0.00000     0.00000     0.00000
  E(xc)    -265.15569  -265.15569  -265.15569     0.00000     0.00000     0.00000
  Local      -3.72573    -3.72573    -3.72573     0.00000     0.00000     0.00000
  n-local    37.31990    38.48218    36.69102    -1.34121    -1.23059    -0.50998
  augment    32.58594    32.58594    32.58592     0.00000    -0.00001    -0.00001
  Kinetic   700.51097   711.56859   713.49169    -2.86067    -2.83445    -1.12819
  Fock        0.00000     0.00000     0.00000     0.00000     0.00000     0.00000
  -------------------------------------------------------------------------------------
  Total       0.69571     0.69571     0.69571     0.00000     0.00000     0.00000
  in kB       8.09598     8.09598     8.09598     0.00000     0.00000     0.00000
  external pressure =        8.10 kB  Pullay stress =        0.00 kB


 VOLUME and BASIS-vectors are now :
 -----------------------------------------------------------------------------
  energy-cutoff  :      525.11
  volume of cell :      137.68
      direct lattice vectors                 reciprocal lattice vectors
     5.163645032  0.000000000  0.000000000     0.193661647  0.000000000  0.000000000
     0.000000000  5.163645032  0.000000000     0.000000000  0.193661647  0.000000000
     0.000000000  0.000000000  5.163645032     0.000000000  0.000000000  0.193661647

  length of vectors
     5.163645032  5.163645032  5.163645032     0.193661647  0.193661647  0.193661647


 FORCES acting on ions
    electron-ion (+dipol)            ewald-force                    non-local-force                 convergence-correction
 -----------------------------------------------------------------------------------------------
   -.202E-13 -.184E-13 -.309E-13   0.415E-14 0.279E-14 0.119E-14   0.646E-26 -.162E-26 0.258E-25   -.777E-13 -.656E-13 -.649E-13
   -.202E-13 -.390E-13 -.462E-13   0.441E-14 0.966E-14 0.790E-14   0.113E-25 0.258E-25 -.351E-25   -.609E-13 0.527E-13 0.667E-13
   -.353E-13 -.186E-13 -.552E-12   -.393E-14 0.348E-14 0.790E-14   -.129E-25 0.517E-25 0.000E+00   0.482E-13 -.738E-13 0.646E-13
   -.363E-13 0.155E-11 -.278E-11   -.366E-14 0.103E-13 0.437E-14   0.388E-25 -.258E-25 -.323E-25   0.427E-13 0.572E-13 -.702E-13
   0.568E-13 0.478E-14 -.551E-13   0.298E-14 -.751E-14 -.681E-14   -.155E-24 0.258E-25 0.517E-25   0.352E-13 -.475E-13 -.515E-13
   0.577E-13 0.738E-12 0.664E-12   0.313E-14 -.715E-14 -.339E-14   0.168E-24 -.207E-24 0.000E+00   0.329E-13 0.345E-13 0.425E-13
   0.127E-13 0.172E-13 0.726E-13   -.380E-14 -.608E-14 -.336E-14   -.323E-24 -.517E-25 0.000E+00   -.517E-13 -.497E-13 0.374E-13
   0.128E-13 0.600E-13 0.260E-13   -.365E-14 -.572E-14 -.764E-14   0.775E-25 -.220E-24 0.103E-24   -.497E-13 0.354E-13 -.531E-13
 -----------------------------------------------------------------------------------------------
   0.280E-13 0.230E-11 -.270E-11   -.379E-15 -.196E-15 0.158E-15   -.189E-24 -.402E-24 0.113E-24   -.809E-13 -.568E-13 -.286E-13
 
 
 POSITION                                       TOTAL-FORCE (eV/Angst)
 -----------------------------------------------------------------------------------
      0.00000      0.00000      0.00000         0.000000      0.000000      0.000000
      0.00000      2.58182      2.58182         0.000000      0.000000      0.000000
      2.58182      0.00000      2.58182         0.000000      0.000000      0.000000
      2.58182      2.58182      0.00000         0.000000      0.000000      0.000000
      2.58182      0.00000      0.00000         0.000000      0.000000      0.000000
      2.58182      2.58182      2.58182         0.000000      0.000000      0.000000
      0.00000      0.00000      2.58182         0.000000      0.000000      0.000000
      0.00000      2.58182      0.00000         0.000000      0.000000      0.000000
 -----------------------------------------------------------------------------------
    total drift:                                0.000000      0.000000      0.000000


--------------------------------------------------------------------------------------------------------



  FREE ENERGIE OF THE ION-ELECTRON SYSTEM (eV)
  ---------------------------------------------------
  free  energy   TOTEN  =       -36.22317521 eV

  energy  without entropy=      -36.22317521  energy(sigma->0) =      -36.22317521
 


--------------------------------------------------------------------------------------------------------


    POTLOK:  cpu time    0.05: real time    0.05


--------------------------------------------------------------------------------------------------------




--------------------------------------------------------------------------------------------------------


  
 reached required accuracy - stopping structural energy minimisation
     LOOP+:  cpu time    6.37: real time    6.42
    4ORBIT:  cpu time    0.00: real time    0.00

 total amount of memory used by VASP on root node    39041. kBytes
========================================================================

   base      :      30000. kBytes
   nonl-proj :       1731. kBytes
   fftplans  :       4155. kBytes
   grid      :       1976. kBytes
   one-center:         16. kBytes
   wavefun   :       1163. kBytes
 
  
  
 General timing and accounting informations for this job:
 ========================================================
  
                  Total CPU time used (sec):        7.598
                            User time (sec):        6.572
                          System time (sec):        1.026
                         Elapsed time (sec):        7.844
  
                   Maximum memory used (kb):       73560.
                   Average memory used (kb):           0.
  
                          Minor page faults:       253360
                          Major page faults:            0
                 Voluntary context switches:         1993
