    8    8   20    1
  0.1807912E+02  0.5249151E-09  0.5249151E-09  0.5249151E-09  0.5000000E-15
  1.000000000000000E-004
  CAR 
 unknown system                          
     56     10     36
 
  0.0000000E+00  0.0000000E+00  0.0000000E+00  0.1562500E-01
    1      -38.065253
    2      -38.065253
    3      -38.065253
    4      -38.062135
    5      -38.062135
    6      -38.062135
    7      -38.062135
    8      -38.062135
    9      -38.062135
   10      -38.059726
   11      -38.059726
   12      -38.059726
   13       -9.289537
   14       -7.672041
   15       -7.672041
   16       -7.672041
   17       -0.867590
   18       -0.867590
   19       -0.867590
   20        1.601688
   21        1.601688
   22        1.601688
   23        1.601688
   24        1.601688
   25        1.601688
   26        3.248172
   27        3.248172
   28        3.248172
   29        5.903537
   30        5.903537
   31        5.903537
   32        6.642192
   33        7.565779
   34        7.565779
   35        7.565779
   36       11.114534
 
  0.2500000E+00  0.0000000E+00  0.0000000E+00  0.9375000E-01
    1      -38.064853
    2      -38.064853
    3      -38.064658
    4      -38.062637
    5      -38.062637
    6      -38.062202
    7      -38.062202
    8      -38.061873
    9      -38.061873
   10      -38.060734
   11      -38.060063
   12      -38.060063
   13       -9.093655
   14       -7.963956
   15       -7.649558
   16       -7.649558
   17       -0.620364
   18       -0.620364
   19       -0.428027
   20        1.042550
   21        1.042550
   22        1.228406
   23        1.228406
   24        1.789391
   25        1.789391
   26        2.227635
   27        2.931438
   28        2.931438
   29        6.536460
   30        6.915939
   31        6.915939
   32        7.803569
   33        7.876815
   34        8.642701
   35        8.642701
   36       10.149780
 
  0.5000000E+00  0.0000000E+00  0.0000000E+00  0.4687500E-01
    1      -38.063775
    2      -38.063775
    3      -38.063775
    4      -38.063775
    5      -38.062703
    6      -38.062703
    7      -38.062308
    8      -38.062308
    9      -38.060942
   10      -38.060942
   11      -38.060942
   12      -38.060942
   13       -8.574241
   14       -8.574241
   15       -7.626715
   16       -7.626715
   17        0.081383
   18        0.081383
   19        0.081383
   20        0.081383
   21        0.711834
   22        0.711834
   23        0.925941
   24        0.925941
   25        2.300499
   26        2.300499
   27        2.300499
   28        2.300499
   29        8.080555
   30        8.080555
   31        8.359880
   32        8.359880
   33        8.785593
   34        8.785593
   35       11.048687
   36       11.051099
 
  0.2500000E+00  0.2500000E+00  0.0000000E+00  0.1875000E+00
    1      -38.064623
    2      -38.064623
    3      -38.064473
    4      -38.063567
    5      -38.062282
    6      -38.062282
    7      -38.061822
    8      -38.061719
    9      -38.061719
   10      -38.061682
   11      -38.060547
   12      -38.060007
   13       -8.910756
   14       -7.895859
   15       -7.895859
   16       -7.670539
   17       -0.451036
   18       -0.451036
   19       -0.376623
   20        0.116150
   21        1.250882
   22        1.250882
   23        1.306184
   24        1.690934
   25        1.690934
   26        1.918083
   27        2.553039
   28        3.147025
   29        7.035453
   30        7.454254
   31        7.454254
   32        8.334159
   33        8.905713
   34        8.905713
   35        9.814255
   36       10.341627
 
  0.5000000E+00  0.2500000E+00  0.0000000E+00  0.1875000E+00
    1      -38.064231
    2      -38.064231
    3      -38.063468
    4      -38.063468
    5      -38.063386
    6      -38.063386
    7      -38.061524
    8      -38.061524
    9      -38.061366
   10      -38.061366
   11      -38.060576
   12      -38.060576
   13       -8.434306
   14       -8.434306
   15       -7.759323
   16       -7.759323
   17       -0.399355
   18       -0.399355
   19        0.203843
   20        0.203843
   21        0.313254
   22        0.313254
   23        1.824838
   24        1.824838
   25        1.828924
   26        1.828924
   27        2.590522
   28        2.590522
   29        8.362802
   30        8.362802
   31        8.856669
   32        8.856669
   33        9.627765
   34        9.627765
   35       10.142232
   36       10.162500
 
  0.5000000E+00  0.5000000E+00  0.0000000E+00  0.4687500E-01
    1      -38.064287
    2      -38.064287
    3      -38.064287
    4      -38.064287
    5      -38.062363
    6      -38.062363
    7      -38.062363
    8      -38.062363
    9      -38.060605
   10      -38.060605
   11      -38.060605
   12      -38.060605
   13       -8.093881
   14       -8.093881
   15       -8.093881
   16       -8.093881
   17       -0.404125
   18       -0.404125
   19       -0.404125
   20       -0.404125
   21        0.963362
   22        0.963362
   23        0.963362
   24        0.963362
   25        2.637887
   26        2.637887
   27        2.637887
   28        2.637887
   29        8.789004
   30        8.789004
   31        8.789004
   32        8.789004
   33       10.567679
   34       10.567709
   35       10.567787
   36       10.573701
 
  0.2500000E+00  0.2500000E+00  0.2500000E+00  0.1250000E+00
    1      -38.064958
    2      -38.064958
    3      -38.064958
    4      -38.062968
    5      -38.062297
    6      -38.062297
    7      -38.062297
    8      -38.061464
    9      -38.061464
   10      -38.061464
   11      -38.060224
   12      -38.060224
   13       -8.743672
   14       -7.865780
   15       -7.865780
   16       -7.865780
   17       -0.730017
   18       -0.730017
   19       -0.730017
   20        0.463626
   21        1.083303
   22        1.083303
   23        1.083303
   24        2.072752
   25        2.072752
   26        2.072752
   27        2.937068
   28        2.937068
   29        7.528287
   30        7.528287
   31        7.528287
   32        7.978993
   33        9.845611
   34        9.845611
   35        9.845611
   36       10.959023
 
  0.5000000E+00  0.2500000E+00  0.2500000E+00  0.1875000E+00
    1      -38.065090
    2      -38.065090
    3      -38.064451
    4      -38.064451
    5      -38.062202
    6      -38.062202
    7      -38.061212
    8      -38.061212
    9      -38.060832
   10      -38.060832
   11      -38.060777
   12      -38.060777
   13       -8.319416
   14       -8.319416
   15       -7.835002
   16       -7.835002
   17       -0.987521
   18       -0.987521
   19       -0.458271
   20       -0.458271
   21        1.151185
   22        1.151185
   23        2.125627
   24        2.125627
   25        2.356273
   26        2.356273
   27        2.477627
   28        2.477627
   29        8.348639
   30        8.348639
   31        8.690881
   32        8.690881
   33        9.180336
   34        9.180336
   35        9.731686
   36        9.731686
 
  0.5000000E+00  0.5000000E+00  0.2500000E+00  0.9375000E-01
    1      -38.065395
    2      -38.065395
    3      -38.065395
    4      -38.065395
    5      -38.061367
    6      -38.061367
    7      -38.061367
    8      -38.061367
    9      -38.060682
   10      -38.060682
   11      -38.060682
   12      -38.060682
   13       -8.057954
   14       -8.057954
   15       -8.057954
   16       -8.057954
   17       -1.092897
   18       -1.092897
   19       -1.092897
   20       -1.092897
   21        1.920791
   22        1.920791
   23        1.920791
   24        1.920791
   25        2.657259
   26        2.657259
   27        2.657259
   28        2.657259
   29        8.407484
   30        8.407484
   31        8.407484
   32        8.407484
   33        9.600759
   34        9.600759
   35        9.600759
   36        9.600759
 
  0.5000000E+00  0.5000000E+00  0.5000000E+00  0.1562500E-01
    1      -38.066021
    2      -38.066021
    3      -38.066021
    4      -38.066021
    5      -38.060608
    6      -38.060608
    7      -38.060608
    8      -38.060608
    9      -38.060608
   10      -38.060608
   11      -38.060608
   12      -38.060608
   13       -8.020911
   14       -8.020911
   15       -8.020911
   16       -8.020911
   17       -1.508609
   18       -1.508609
   19       -1.508609
   20       -1.508609
   21        2.677054
   22        2.677054
   23        2.677054
   24        2.677054
   25        2.677054
   26        2.677054
   27        2.677054
   28        2.677054
   29        7.611216
   30        7.611216
   31        7.611216
   32        7.611216
   33       10.046236
   34       10.046236
   35       10.046236
   36       10.046236
