<?xml version="1.0" encoding="ISO-8859-1"?>
<modeling>
 <generator>
  <i name="program" type="string">vasp </i>
  <i name="version" type="string">5.3.5  </i>
  <i name="subversion" type="string">31Mar14 (build Nov 07 2014 11:36:17) complex                          parallel </i>
  <i name="platform" type="string">LinuxIFC </i>
  <i name="date" type="string">2015 10 15 </i>
  <i name="time" type="string">01:06:12 </i>
 </generator>
 <incar>
  <i type="string" name="PREC">accurate</i>
  <i type="int" name="IALGO">    38</i>
  <i type="logical" name="ADDGRID"> T  </i>
  <i type="int" name="NELMIN">     5</i>
  <i type="int" name="IBRION">     2</i>
  <i name="EDIFF">      0.00000001</i>
  <i name="EDIFFG">     -0.00000001</i>
  <i type="int" name="NSW">    20</i>
  <i type="int" name="ISIF">     4</i>
  <i name="ENCUT">    525.10770000</i>
  <i type="logical" name="LREAL"> F  </i>
  <i type="int" name="ISMEAR">     0</i>
  <i name="SIGMA">      0.01000000</i>
  <i type="logical" name="LWAVE"> F  </i>
  <i type="logical" name="LCHARG"> F  </i>
  <i type="string" name="GGA"> PS</i>
 </incar>
 <kpoints>
  <generation param="Gamma">
   <v type="int" name="divisions">       4        4        4 </v>
   <v name="usershift">      0.00000000       0.00000000       0.00000000 </v>
   <v name="genvec1">      0.25000000       0.00000000       0.00000000 </v>
   <v name="genvec2">      0.00000000       0.25000000       0.00000000 </v>
   <v name="genvec3">      0.00000000       0.00000000       0.25000000 </v>
   <v name="shift">      0.00000000       0.00000000       0.00000000 </v>
  </generation>
  <varray name="kpointlist" >
   <v>       0.00000000       0.00000000       0.00000000 </v>
   <v>       0.25000000       0.00000000       0.00000000 </v>
   <v>       0.50000000       0.00000000       0.00000000 </v>
   <v>       0.25000000       0.25000000       0.00000000 </v>
   <v>       0.50000000       0.25000000       0.00000000 </v>
   <v>       0.50000000       0.50000000       0.00000000 </v>
   <v>       0.25000000       0.25000000       0.25000000 </v>
   <v>       0.50000000       0.25000000       0.25000000 </v>
   <v>       0.50000000       0.50000000       0.25000000 </v>
   <v>       0.50000000       0.50000000       0.50000000 </v>
  </varray>
  <varray name="weights" >
   <v>       0.01562500 </v>
   <v>       0.09375000 </v>
   <v>       0.04687500 </v>
   <v>       0.18750000 </v>
   <v>       0.18750000 </v>
   <v>       0.04687500 </v>
   <v>       0.12500000 </v>
   <v>       0.18750000 </v>
   <v>       0.09375000 </v>
   <v>       0.01562500 </v>
  </varray>
 </kpoints>
 <parameters>
  <separator name="general" >
   <i type="string" name="SYSTEM">unknown system</i>
   <i type="logical" name="LCOMPAT"> F  </i>
  </separator>
  <separator name="electronic" >
   <i type="string" name="PREC">accura</i>
   <i name="ENMAX">    525.10770000</i>
   <i name="ENAUG">    758.78000000</i>
   <i name="EDIFF">      0.00000001</i>
   <i type="int" name="IALGO">    38</i>
   <i type="int" name="IWAVPR">    11</i>
   <i type="int" name="NBANDS">    36</i>
   <i name="NELECT">     56.00000000</i>
   <i type="int" name="TURBO">     0</i>
   <i type="int" name="IRESTART">     0</i>
   <i type="int" name="NREBOOT">     0</i>
   <i type="int" name="NMIN">     0</i>
   <i name="EREF">      0.00000000</i>
   <separator name="electronic smearing" >
    <i type="int" name="ISMEAR">     0</i>
    <i name="SIGMA">      0.01000000</i>
    <i name="KSPACING">      0.50000000</i>
    <i type="logical" name="KGAMMA"> T  </i>
   </separator>
   <separator name="electronic projectors" >
    <i type="logical" name="LREAL"> F  </i>
    <v name="ROPT">      0.00000000      0.00000000</v>
    <i type="int" name="LMAXPAW">  -100</i>
    <i type="int" name="LMAXMIX">     2</i>
    <i type="logical" name="NLSPLINE"> F  </i>
   </separator>
   <separator name="electronic startup" >
    <i type="int" name="ISTART">     0</i>
    <i type="int" name="ICHARG">     2</i>
    <i type="int" name="INIWAV">     1</i>
   </separator>
   <separator name="electronic spin" >
    <i type="int" name="ISPIN">     1</i>
    <i type="logical" name="LNONCOLLINEAR"> F  </i>
    <v name="MAGMOM">      1.00000000      1.00000000      1.00000000      1.00000000      1.00000000      1.00000000      1.00000000      1.00000000</v>
    <i name="NUPDOWN">     -1.00000000</i>
    <i type="logical" name="LSORBIT"> F  </i>
    <v name="SAXIS">      0.00000000      0.00000000      1.00000000</v>
    <i type="logical" name="LSPIRAL"> F  </i>
    <v name="QSPIRAL">      0.00000000      0.00000000      0.00000000</v>
    <i type="logical" name="LZEROZ"> F  </i>
   </separator>
   <separator name="electronic exchange-correlation" >
    <i type="logical" name="LASPH"> F  </i>
    <i type="logical" name="LMETAGGA"> F  </i>
   </separator>
   <separator name="electronic convergence" >
    <i type="int" name="NELM">    60</i>
    <i type="int" name="NELMDL">    -5</i>
    <i type="int" name="NELMIN">     5</i>
    <i name="ENINI">    525.10770000</i>
    <separator name="electronic convergence detail" >
     <i type="logical" name="LDIAG"> T  </i>
     <i type="logical" name="LSUBROT"> F  </i>
     <i name="WEIMIN">      0.00100000</i>
     <i name="EBREAK">      0.00000000</i>
     <i name="DEPER">      0.30000000</i>
     <i type="int" name="NRMM">     4</i>
     <i name="TIME">      0.40000000</i>
    </separator>
   </separator>
   <separator name="electronic mixer" >
    <i name="AMIX">      0.40000000</i>
    <i name="BMIX">      1.00000000</i>
    <i name="AMIN">      0.10000000</i>
    <i name="AMIX_MAG">      1.60000000</i>
    <i name="BMIX_MAG">      1.00000000</i>
    <separator name="electronic mixer details" >
     <i type="int" name="IMIX">     4</i>
     <i type="int" name="MAXMIX">   -45</i>
     <i name="WC">    100.00000000</i>
     <i type="int" name="INIMIX">     1</i>
     <i type="int" name="MIXPRE">     1</i>
     <i type="int" name="MREMOVE">     5</i>
    </separator>
   </separator>
   <separator name="electronic dipolcorrection" >
    <i type="logical" name="LDIPOL"> F  </i>
    <i type="logical" name="LMONO"> F  </i>
    <i type="int" name="IDIPOL">     0</i>
    <i name="EPSILON">      1.00000000</i>
    <v name="DIPOL">   -100.00000000   -100.00000000   -100.00000000</v>
    <i name="EFIELD">      0.00000000</i>
   </separator>
  </separator>
  <separator name="grids" >
   <i type="int" name="NGX">    40</i>
   <i type="int" name="NGY">    40</i>
   <i type="int" name="NGZ">    40</i>
   <i type="int" name="NGXF">    80</i>
   <i type="int" name="NGYF">    80</i>
   <i type="int" name="NGZF">    80</i>
   <i type="logical" name="ADDGRID"> T  </i>
  </separator>
  <separator name="ionic" >
   <i type="int" name="NSW">    20</i>
   <i type="int" name="IBRION">     2</i>
   <i type="int" name="ISIF">     4</i>
   <i name="PSTRESS">      0.00000000</i>
   <i name="EDIFFG">     -0.00000001</i>
   <i type="int" name="NFREE">     1</i>
   <i name="POTIM">      0.50000000</i>
   <i name="SMASS">     -3.00000000</i>
   <i name="SCALEE">      1.00000000</i>
  </separator>
  <separator name="ionic md" >
   <i name="TEBEG">      0.00010000</i>
   <i name="TEEND">      0.00010000</i>
   <i type="int" name="NBLOCK">     1</i>
   <i type="int" name="KBLOCK">    20</i>
   <i type="int" name="NPACO">   256</i>
   <i name="APACO">     16.00000000</i>
  </separator>
  <separator name="symmetry" >
   <i type="int" name="ISYM">     2</i>
   <i name="SYMPREC">      0.00001000</i>
  </separator>
  <separator name="dos" >
   <i type="logical" name="LORBIT"> F  </i>
   <v name="RWIGS">     -1.00000000     -1.00000000</v>
   <i type="int" name="NEDOS">   301</i>
   <i name="EMIN">     10.00000000</i>
   <i name="EMAX">    -10.00000000</i>
   <i name="EFERMI">      0.00000000</i>
  </separator>
  <separator name="writing" >
   <i type="int" name="NWRITE">     2</i>
   <i type="logical" name="LWAVE"> F  </i>
   <i type="logical" name="LCHARG"> F  </i>
   <i type="logical" name="LPARD"> F  </i>
   <i type="logical" name="LVTOT"> F  </i>
   <i type="logical" name="LVHAR"> F  </i>
   <i type="logical" name="LELF"> F  </i>
   <i type="logical" name="LOPTICS"> F  </i>
   <v name="STM">      0.00000000      0.00000000      0.00000000      0.00000000      0.00000000      0.00000000      0.00000000</v>
  </separator>
  <separator name="performance" >
   <i type="int" name="NPAR">     4</i>
   <i type="int" name="NSIM">     4</i>
   <i type="int" name="NBLK">    -1</i>
   <i type="logical" name="LPLANE"> T  </i>
   <i type="logical" name="LSCALAPACK"> T  </i>
   <i type="logical" name="LSCAAWARE"> F  </i>
   <i type="logical" name="LSCALU"> F  </i>
   <i type="logical" name="LASYNC"> F  </i>
   <i type="logical" name="LORBITALREAL"> F  </i>
  </separator>
  <separator name="miscellaneous" >
   <i type="int" name="IDIOT">     3</i>
   <i type="logical" name="LMUSIC"> F  </i>
   <v name="POMASS">     24.30500000     32.06600000</v>
   <v name="DARWINR">      0.00000000      0.00000000</v>
   <v name="DARWINV">      1.00000000      1.00000000</v>
   <i type="logical" name="LCORR"> T  </i>
  </separator>
  <i type="logical" name="GGA_COMPAT"> T  </i>
  <i type="logical" name="LBERRY"> F  </i>
  <i type="int" name="ICORELEVEL">     0</i>
  <i type="logical" name="LDAU"> F  </i>
  <i type="int" name="I_CONSTRAINED_M">     0</i>
  <separator name="electronic exchange-correlation" >
   <i type="string" name="GGA">PS</i>
   <i type="int" name="VOSKOWN">     0</i>
   <i type="logical" name="LHFCALC"> F  </i>
   <i type="string" name="PRECFOCK"></i>
   <i type="logical" name="LSYMGRAD"> F  </i>
   <i type="logical" name="LHFONE"> F  </i>
   <i type="logical" name="LRHFCALC"> F  </i>
   <i type="logical" name="LTHOMAS"> F  </i>
   <i type="logical" name="LMODELHF"> F  </i>
   <i name="ENCUT4O">     -1.00000000</i>
   <i type="int" name="EXXOEP">     0</i>
   <i type="int" name="FOURORBIT">     0</i>
   <i name="AEXX">      0.00000000</i>
   <i name="HFALPHA">      0.00000000</i>
   <i name="MCALPHA">      0.00000000</i>
   <i name="ALDAX">      1.00000000</i>
   <i name="AGGAX">      1.00000000</i>
   <i name="ALDAC">      1.00000000</i>
   <i name="AGGAC">      1.00000000</i>
   <i type="int" name="NKREDX">     1</i>
   <i type="int" name="NKREDY">     1</i>
   <i type="int" name="NKREDZ">     1</i>
   <i type="logical" name="SHIFTRED"> F  </i>
   <i type="logical" name="ODDONLY"> F  </i>
   <i type="logical" name="EVENONLY"> F  </i>
   <i type="int" name="LMAXFOCK">     0</i>
   <i type="int" name="NMAXFOCKAE">     0</i>
   <i type="logical" name="LFOCKAEDFT"> F  </i>
   <i name="HFSCREEN">      0.00000000</i>
   <i name="HFSCREENC">      0.00000000</i>
   <i type="int" name="NBANDSGWLOW">     0</i>
  </separator>
  <separator name="vdW DFT" >
   <i type="logical" name="LUSE_VDW"> F  </i>
   <i name="Zab_VDW">     -0.84910000</i>
   <i name="PARAM1">      0.12340000</i>
   <i name="PARAM2">      1.00000000</i>
   <i name="PARAM3">      0.00000000</i>
  </separator>
  <separator name="model GW" >
   <i type="int" name="MODEL_GW">     0</i>
   <i name="MODEL_EPS0">     10.84747223</i>
   <i name="MODEL_ALPHA">      1.00000000</i>
  </separator>
  <separator name="linear response parameters" >
   <i type="logical" name="LEPSILON"> F  </i>
   <i type="logical" name="LRPA"> F  </i>
   <i type="logical" name="LNABLA"> F  </i>
   <i type="logical" name="LVEL"> F  </i>
   <i type="int" name="KINTER">     0</i>
   <i name="CSHIFT">      0.10000000</i>
   <i name="OMEGAMAX">     -1.00000000</i>
   <i name="DEG_THRESHOLD">      0.00200000</i>
  </separator>
  <separator name="orbital magnetization" >
   <i type="logical" name="NUCIND"> F  </i>
   <v name="MAGPOS">      0.00000000      0.00000000      0.00000000</v>
   <i type="logical" name="LNICSALL"> T  </i>
   <i type="logical" name="ORBITALMAG"> F  </i>
   <i type="logical" name="LMAGBLOCH"> F  </i>
   <i type="logical" name="LCHIMAG"> F  </i>
   <i type="logical" name="LGAUGE"> T  </i>
   <i type="int" name="MAGATOM">     0</i>
   <v name="MAGDIPOL">      0.00000000      0.00000000      0.00000000</v>
   <v name="AVECCONST">      0.00000000      0.00000000      0.00000000</v>
  </separator>
  <separator name="response functions" >
   <i type="logical" name="LADDER"> F  </i>
   <i type="logical" name="LFXC"> F  </i>
   <i type="logical" name="LHARTREE"> T  </i>
   <i type="int" name="IBSE">     0</i>
   <i type="logical" name="LTCTE"> F  </i>
   <i type="logical" name="LTETE"> F  </i>
   <i type="logical" name="LTRIPLET"> F  </i>
   <i type="logical" name="LFXCEPS"> F  </i>
   <i type="logical" name="LFXHEG"> F  </i>
   <i type="logical" name="L2ORDER"> F  </i>
   <i type="logical" name="LUSEW"> F  </i>
   <i name="ENCUTGW">     -2.00000000</i>
   <i name="ENCUTGWSOFT">     -2.00000000</i>
   <i name="ENCUTLF">     -1.00000000</i>
   <i type="int" name="LMAXMP2">    -1</i>
   <i name="SCISSOR">      0.00000000</i>
   <i type="int" name="NOMEGA">     0</i>
   <i type="int" name="NOMEGAR">     0</i>
   <i type="int" name="NBANDSGW">    -1</i>
   <i type="int" name="NBANDSO">    -1</i>
   <i type="int" name="NBANDSV">    -1</i>
   <i type="int" name="NELM">     1</i>
   <i type="int" name="DIM">     3</i>
   <i type="int" name="ANTIRES">     0</i>
   <i name="OMEGAMAX">    -30.00000000</i>
   <i name="OMEGAMIN">    -30.00000000</i>
   <i name="OMEGATL">   -200.00000000</i>
   <i type="int" name="OMEGAGRID">     0</i>
   <i name="CSHIFT">     -0.10000000</i>
   <i type="logical" name="SELFENERGY"> F  </i>
   <i type="logical" name="LSPECTRAL"> F  </i>
   <i type="logical" name="ODDONLYGW"> F  </i>
   <i type="logical" name="EVENONLYGW"> F  </i>
   <i type="int" name="NKREDLFX">     1</i>
   <i type="int" name="NKREDLFY">     1</i>
   <i type="int" name="NKREDLFZ">     1</i>
   <i type="int" name="MAXMEM">  1800</i>
   <i type="int" name="TELESCOPE">     0</i>
   <i type="int" name="TAUPAR">     1</i>
  </separator>
  <separator name="External order field" >
   <i name="OFIELD_KAPPA">      0.00000000</i>
   <v name="OFIELD_K">      0.00000000      0.00000000      0.00000000</v>
   <i name="OFIELD_Q6_NEAR">      0.00000000</i>
   <i name="OFIELD_Q6_FAR">      0.00000000</i>
   <i name="OFIELD_A">      0.00000000</i>
  </separator>
 </parameters>
 <atominfo>
  <atoms>       8 </atoms>
  <types>       2 </types>
  <array name="atoms" >
   <dimension dim="1">ion</dimension>
   <field type="string">element</field>
   <field type="int">atomtype</field>
   <set>
    <rc><c>Mg</c><c>   1</c></rc>
    <rc><c>Mg</c><c>   1</c></rc>
    <rc><c>Mg</c><c>   1</c></rc>
    <rc><c>Mg</c><c>   1</c></rc>
    <rc><c>S </c><c>   2</c></rc>
    <rc><c>S </c><c>   2</c></rc>
    <rc><c>S </c><c>   2</c></rc>
    <rc><c>S </c><c>   2</c></rc>
   </set>
  </array>
  <array name="atomtypes" >
   <dimension dim="1">type</dimension>
   <field type="int">atomspertype</field>
   <field type="string">element</field>
   <field>mass</field>
   <field>valence</field>
   <field type="string">pseudopotential</field>
   <set>
    <rc><c>   4</c><c>Mg</c><c>     24.30500000</c><c>      8.00000000</c><c>  PAW_PBE Mg_pv 13Apr2007               </c></rc>
    <rc><c>   4</c><c>S </c><c>     32.06600000</c><c>      6.00000000</c><c>  PAW_PBE S 06Sep2000                   </c></rc>
   </set>
  </array>
 </atominfo>
 <structure name="initialpos" >
  <crystal>
   <varray name="basis" >
    <v>       5.24915134       0.00000000       0.00000000 </v>
    <v>       0.00000000       5.24915134       0.00000000 </v>
    <v>       0.00000000       0.00000000       5.24915134 </v>
   </varray>
   <i name="volume">    144.63296307 </i>
   <varray name="rec_basis" >
    <v>       0.19050699       0.00000000       0.00000000 </v>
    <v>       0.00000000       0.19050699       0.00000000 </v>
    <v>       0.00000000       0.00000000       0.19050699 </v>
   </varray>
  </crystal>
  <varray name="positions" >
   <v>       0.00000000       0.00000000       0.00000000 </v>
   <v>       0.00000000       0.50000000       0.50000000 </v>
   <v>       0.50000000       0.00000000       0.50000000 </v>
   <v>       0.50000000       0.50000000       0.00000000 </v>
   <v>       0.50000000       0.00000000       0.00000000 </v>
   <v>       0.50000000       0.50000000       0.50000000 </v>
   <v>       0.00000000       0.00000000       0.50000000 </v>
   <v>       0.00000000       0.50000000       0.00000000 </v>
  </varray>
 </structure>
 <calculation>
  <scstep>
   <time name="dav">    0.29    0.29</time>
   <time name="total">    0.34    0.35</time>
   <energy>
    <i name="alphaZ">    146.80348245 </i>
    <i name="ewald">  -3089.46269368 </i>
    <i name="hartreedc">  -1182.04679383 </i>
    <i name="XCdc">    158.79937884 </i>
    <i name="pawpsdc">   3462.71711756 </i>
    <i name="pawaedc">  -3919.80126840 </i>
    <i name="eentropy">     -0.00067033 </i>
    <i name="bandstr">   -451.70405796 </i>
    <i name="atom">   5321.70543053 </i>
    <i name="e_fr_energy">    447.00992517 </i>
    <i name="e_wo_entrp">    447.01059550 </i>
    <i name="e_0_energy">    447.01026033 </i>
   </energy>
  </scstep>
  <scstep>
   <time name="dav">    0.27    0.27</time>
   <time name="total">    0.27    0.27</time>
   <energy>
    <i name="e_fr_energy">     -3.84567251 </i>
    <i name="e_wo_entrp">     -3.84567251 </i>
    <i name="e_0_energy">     -3.84567251 </i>
   </energy>
  </scstep>
  <scstep>
   <time name="dav">    0.26    0.26</time>
   <time name="total">    0.27    0.27</time>
   <energy>
    <i name="e_fr_energy">    -36.60995681 </i>
    <i name="e_wo_entrp">    -36.60995681 </i>
    <i name="e_0_energy">    -36.60995681 </i>
   </energy>
  </scstep>
  <scstep>
   <time name="dav">    0.27    0.27</time>
   <time name="total">    0.27    0.27</time>
   <energy>
    <i name="e_fr_energy">    -37.69031280 </i>
    <i name="e_wo_entrp">    -37.69031280 </i>
    <i name="e_0_energy">    -37.69031280 </i>
   </energy>
  </scstep>
  <scstep>
   <time name="dav">    0.27    0.27</time>
   <time name="total">    0.33    0.34</time>
   <energy>
    <i name="e_fr_energy">    -37.71795103 </i>
    <i name="e_wo_entrp">    -37.71795103 </i>
    <i name="e_0_energy">    -37.71795103 </i>
   </energy>
  </scstep>
  <scstep>
   <time name="dav">    0.24    0.25</time>
   <time name="total">    0.35    0.35</time>
   <energy>
    <i name="e_fr_energy">    -36.35274640 </i>
    <i name="e_wo_entrp">    -36.35274640 </i>
    <i name="e_0_energy">    -36.35274640 </i>
   </energy>
  </scstep>
  <scstep>
   <time name="dav">    0.28    0.28</time>
   <time name="total">    0.38    0.39</time>
   <energy>
    <i name="e_fr_energy">    -36.19251398 </i>
    <i name="e_wo_entrp">    -36.19251398 </i>
    <i name="e_0_energy">    -36.19251398 </i>
   </energy>
  </scstep>
  <scstep>
   <time name="dav">    0.25    0.25</time>
   <time name="total">    0.35    0.36</time>
   <energy>
    <i name="e_fr_energy">    -36.18470315 </i>
    <i name="e_wo_entrp">    -36.18470315 </i>
    <i name="e_0_energy">    -36.18470315 </i>
   </energy>
  </scstep>
  <scstep>
   <time name="dav">    0.27    0.27</time>
   <time name="total">    0.38    0.38</time>
   <energy>
    <i name="e_fr_energy">    -36.18375114 </i>
    <i name="e_wo_entrp">    -36.18375114 </i>
    <i name="e_0_energy">    -36.18375114 </i>
   </energy>
  </scstep>
  <scstep>
   <time name="dav">    0.28    0.28</time>
   <time name="total">    0.39    0.39</time>
   <energy>
    <i name="e_fr_energy">    -36.18377402 </i>
    <i name="e_wo_entrp">    -36.18377402 </i>
    <i name="e_0_energy">    -36.18377402 </i>
   </energy>
  </scstep>
  <scstep>
   <time name="dav">    0.26    0.26</time>
   <time name="total">    0.36    0.37</time>
   <energy>
    <i name="e_fr_energy">    -36.18377016 </i>
    <i name="e_wo_entrp">    -36.18377016 </i>
    <i name="e_0_energy">    -36.18377016 </i>
   </energy>
  </scstep>
  <scstep>
   <time name="dav">    0.28    0.28</time>
   <time name="total">    0.39    0.39</time>
   <energy>
    <i name="e_fr_energy">    -36.18376942 </i>
    <i name="e_wo_entrp">    -36.18376942 </i>
    <i name="e_0_energy">    -36.18376942 </i>
   </energy>
  </scstep>
  <scstep>
   <time name="dav">    0.27    0.27</time>
   <time name="total">    0.37    0.38</time>
   <energy>
    <i name="e_fr_energy">    -36.18376931 </i>
    <i name="e_wo_entrp">    -36.18376931 </i>
    <i name="e_0_energy">    -36.18376931 </i>
   </energy>
  </scstep>
  <scstep>
   <time name="dav">    0.26    0.26</time>
   <time name="total">    0.36    0.36</time>
   <energy>
    <i name="e_fr_energy">    -36.18376926 </i>
    <i name="e_wo_entrp">    -36.18376926 </i>
    <i name="e_0_energy">    -36.18376926 </i>
   </energy>
  </scstep>
  <scstep>
   <time name="dav">    0.23    0.23</time>
   <time name="total">    0.34    0.34</time>
   <energy>
    <i name="e_fr_energy">    -36.18376932 </i>
    <i name="e_wo_entrp">    -36.18376932 </i>
    <i name="e_0_energy">    -36.18376932 </i>
   </energy>
  </scstep>
  <scstep>
   <time name="dav">    0.17    0.17</time>
   <time name="total">    0.27    0.27</time>
   <energy>
    <i name="e_fr_energy">    -36.18376930 </i>
    <i name="e_wo_entrp">    -36.18376930 </i>
    <i name="e_0_energy">    -36.18376930 </i>
   </energy>
  </scstep>
  <scstep>
   <time name="dav">    0.17    0.17</time>
   <time name="total">    0.21    0.21</time>
   <energy>
    <i name="alphaZ">    146.80348245 </i>
    <i name="ewald">  -3089.46269368 </i>
    <i name="hartreedc">  -1172.35784628 </i>
    <i name="XCdc">    160.82118379 </i>
    <i name="pawpsdc">   4574.70043407 </i>
    <i name="pawaedc">  -5027.24897856 </i>
    <i name="eentropy">      0.00000000 </i>
    <i name="bandstr">   -951.14478162 </i>
    <i name="atom">   5321.70543053 </i>
    <i name="e_fr_energy">    -36.18376930 </i>
    <i name="e_wo_entrp">    -36.18376930 </i>
    <i name="e_0_energy">    -36.18376930 </i>
   </energy>
  </scstep>
  <structure>
   <crystal>
    <varray name="basis" >
     <v>       5.24915134       0.00000000       0.00000000 </v>
     <v>       0.00000000       5.24915134       0.00000000 </v>
     <v>       0.00000000       0.00000000       5.24915134 </v>
    </varray>
    <i name="volume">    144.63296307 </i>
    <varray name="rec_basis" >
     <v>       0.19050699       0.00000000       0.00000000 </v>
     <v>       0.00000000       0.19050699       0.00000000 </v>
     <v>       0.00000000       0.00000000       0.19050699 </v>
    </varray>
   </crystal>
   <varray name="positions" >
    <v>       0.00000000       0.00000000       0.00000000 </v>
    <v>       0.00000000       0.50000000       0.50000000 </v>
    <v>       0.50000000       0.00000000       0.50000000 </v>
    <v>       0.50000000       0.50000000       0.00000000 </v>
    <v>       0.50000000       0.00000000       0.00000000 </v>
    <v>       0.50000000       0.50000000       0.50000000 </v>
    <v>       0.00000000       0.00000000       0.50000000 </v>
    <v>       0.00000000       0.50000000       0.00000000 </v>
   </varray>
  </structure>
  <varray name="forces" >
   <v>       0.00000000       0.00000000       0.00000000 </v>
   <v>       0.00000000       0.00000000       0.00000000 </v>
   <v>       0.00000000       0.00000000       0.00000000 </v>
   <v>       0.00000000       0.00000000       0.00000000 </v>
   <v>       0.00000000       0.00000000       0.00000000 </v>
   <v>       0.00000000       0.00000000       0.00000000 </v>
   <v>       0.00000000       0.00000000       0.00000000 </v>
   <v>       0.00000000       0.00000000       0.00000000 </v>
  </varray>
  <varray name="stress" >
   <v>     -28.48017642       0.00000000       0.00000000 </v>
   <v>       0.00000000     -28.48017642       0.00000000 </v>
   <v>       0.00000000       0.00000000     -28.48017642 </v>
  </varray>
  <energy>
   <i name="e_fr_energy">    -36.18376930 </i>
   <i name="e_wo_entrp">    -36.18376930 </i>
   <i name="e_0_energy">      0.00000000 </i>
  </energy>
  <time name="totalsc">    6.66    6.71</time>
  <eigenvalues>
   <array>
    <dimension dim="1">band</dimension>
    <dimension dim="2">kpoint</dimension>
    <dimension dim="3">spin</dimension>
    <field>eigene</field>
    <field>occ</field>
    <set>
     <set comment="spin 1">
      <set comment="kpoint 1">
       <r>  -38.0653    1.0000 </r>
       <r>  -38.0653    1.0000 </r>
       <r>  -38.0653    1.0000 </r>
       <r>  -38.0621    1.0000 </r>
       <r>  -38.0621    1.0000 </r>
       <r>  -38.0621    1.0000 </r>
       <r>  -38.0621    1.0000 </r>
       <r>  -38.0621    1.0000 </r>
       <r>  -38.0621    1.0000 </r>
       <r>  -38.0597    1.0000 </r>
       <r>  -38.0597    1.0000 </r>
       <r>  -38.0597    1.0000 </r>
       <r>   -9.2895    1.0000 </r>
       <r>   -7.6720    1.0000 </r>
       <r>   -7.6720    1.0000 </r>
       <r>   -7.6720    1.0000 </r>
       <r>   -0.8676    1.0000 </r>
       <r>   -0.8676    1.0000 </r>
       <r>   -0.8676    1.0000 </r>
       <r>    1.6017    1.0000 </r>
       <r>    1.6017    1.0000 </r>
       <r>    1.6017    1.0000 </r>
       <r>    1.6017    1.0000 </r>
       <r>    1.6017    1.0000 </r>
       <r>    1.6017    1.0000 </r>
       <r>    3.2482    1.0000 </r>
       <r>    3.2482    1.0000 </r>
       <r>    3.2482    1.0000 </r>
       <r>    5.9035    0.0000 </r>
       <r>    5.9035    0.0000 </r>
       <r>    5.9035    0.0000 </r>
       <r>    6.6422    0.0000 </r>
       <r>    7.5658    0.0000 </r>
       <r>    7.5658    0.0000 </r>
       <r>    7.5658    0.0000 </r>
       <r>   11.1145    0.0000 </r>
      </set>
      <set comment="kpoint 2">
       <r>  -38.0649    1.0000 </r>
       <r>  -38.0649    1.0000 </r>
       <r>  -38.0647    1.0000 </r>
       <r>  -38.0626    1.0000 </r>
       <r>  -38.0626    1.0000 </r>
       <r>  -38.0622    1.0000 </r>
       <r>  -38.0622    1.0000 </r>
       <r>  -38.0619    1.0000 </r>
       <r>  -38.0619    1.0000 </r>
       <r>  -38.0607    1.0000 </r>
       <r>  -38.0601    1.0000 </r>
       <r>  -38.0601    1.0000 </r>
       <r>   -9.0937    1.0000 </r>
       <r>   -7.9640    1.0000 </r>
       <r>   -7.6496    1.0000 </r>
       <r>   -7.6496    1.0000 </r>
       <r>   -0.6204    1.0000 </r>
       <r>   -0.6204    1.0000 </r>
       <r>   -0.4280    1.0000 </r>
       <r>    1.0426    1.0000 </r>
       <r>    1.0426    1.0000 </r>
       <r>    1.2284    1.0000 </r>
       <r>    1.2284    1.0000 </r>
       <r>    1.7894    1.0000 </r>
       <r>    1.7894    1.0000 </r>
       <r>    2.2276    1.0000 </r>
       <r>    2.9314    1.0000 </r>
       <r>    2.9314    1.0000 </r>
       <r>    6.5365    0.0000 </r>
       <r>    6.9159    0.0000 </r>
       <r>    6.9159    0.0000 </r>
       <r>    7.8036    0.0000 </r>
       <r>    7.8768    0.0000 </r>
       <r>    8.6427    0.0000 </r>
       <r>    8.6427    0.0000 </r>
       <r>   10.1498    0.0000 </r>
      </set>
      <set comment="kpoint 3">
       <r>  -38.0638    1.0000 </r>
       <r>  -38.0638    1.0000 </r>
       <r>  -38.0638    1.0000 </r>
       <r>  -38.0638    1.0000 </r>
       <r>  -38.0627    1.0000 </r>
       <r>  -38.0627    1.0000 </r>
       <r>  -38.0623    1.0000 </r>
       <r>  -38.0623    1.0000 </r>
       <r>  -38.0609    1.0000 </r>
       <r>  -38.0609    1.0000 </r>
       <r>  -38.0609    1.0000 </r>
       <r>  -38.0609    1.0000 </r>
       <r>   -8.5742    1.0000 </r>
       <r>   -8.5742    1.0000 </r>
       <r>   -7.6267    1.0000 </r>
       <r>   -7.6267    1.0000 </r>
       <r>    0.0814    1.0000 </r>
       <r>    0.0814    1.0000 </r>
       <r>    0.0814    1.0000 </r>
       <r>    0.0814    1.0000 </r>
       <r>    0.7118    1.0000 </r>
       <r>    0.7118    1.0000 </r>
       <r>    0.9259    1.0000 </r>
       <r>    0.9259    1.0000 </r>
       <r>    2.3005    1.0000 </r>
       <r>    2.3005    1.0000 </r>
       <r>    2.3005    1.0000 </r>
       <r>    2.3005    1.0000 </r>
       <r>    8.0806    0.0000 </r>
       <r>    8.0806    0.0000 </r>
       <r>    8.3599    0.0000 </r>
       <r>    8.3599    0.0000 </r>
       <r>    8.7856    0.0000 </r>
       <r>    8.7856    0.0000 </r>
       <r>   11.0487    0.0000 </r>
       <r>   11.0511    0.0000 </r>
      </set>
      <set comment="kpoint 4">
       <r>  -38.0646    1.0000 </r>
       <r>  -38.0646    1.0000 </r>
       <r>  -38.0645    1.0000 </r>
       <r>  -38.0636    1.0000 </r>
       <r>  -38.0623    1.0000 </r>
       <r>  -38.0623    1.0000 </r>
       <r>  -38.0618    1.0000 </r>
       <r>  -38.0617    1.0000 </r>
       <r>  -38.0617    1.0000 </r>
       <r>  -38.0617    1.0000 </r>
       <r>  -38.0605    1.0000 </r>
       <r>  -38.0600    1.0000 </r>
       <r>   -8.9108    1.0000 </r>
       <r>   -7.8959    1.0000 </r>
       <r>   -7.8959    1.0000 </r>
       <r>   -7.6705    1.0000 </r>
       <r>   -0.4510    1.0000 </r>
       <r>   -0.4510    1.0000 </r>
       <r>   -0.3766    1.0000 </r>
       <r>    0.1162    1.0000 </r>
       <r>    1.2509    1.0000 </r>
       <r>    1.2509    1.0000 </r>
       <r>    1.3062    1.0000 </r>
       <r>    1.6909    1.0000 </r>
       <r>    1.6909    1.0000 </r>
       <r>    1.9181    1.0000 </r>
       <r>    2.5530    1.0000 </r>
       <r>    3.1470    1.0000 </r>
       <r>    7.0355    0.0000 </r>
       <r>    7.4543    0.0000 </r>
       <r>    7.4543    0.0000 </r>
       <r>    8.3342    0.0000 </r>
       <r>    8.9057    0.0000 </r>
       <r>    8.9057    0.0000 </r>
       <r>    9.8143    0.0000 </r>
       <r>   10.3416    0.0000 </r>
      </set>
      <set comment="kpoint 5">
       <r>  -38.0642    1.0000 </r>
       <r>  -38.0642    1.0000 </r>
       <r>  -38.0635    1.0000 </r>
       <r>  -38.0635    1.0000 </r>
       <r>  -38.0634    1.0000 </r>
       <r>  -38.0634    1.0000 </r>
       <r>  -38.0615    1.0000 </r>
       <r>  -38.0615    1.0000 </r>
       <r>  -38.0614    1.0000 </r>
       <r>  -38.0614    1.0000 </r>
       <r>  -38.0606    1.0000 </r>
       <r>  -38.0606    1.0000 </r>
       <r>   -8.4343    1.0000 </r>
       <r>   -8.4343    1.0000 </r>
       <r>   -7.7593    1.0000 </r>
       <r>   -7.7593    1.0000 </r>
       <r>   -0.3994    1.0000 </r>
       <r>   -0.3994    1.0000 </r>
       <r>    0.2038    1.0000 </r>
       <r>    0.2038    1.0000 </r>
       <r>    0.3133    1.0000 </r>
       <r>    0.3133    1.0000 </r>
       <r>    1.8248    1.0000 </r>
       <r>    1.8248    1.0000 </r>
       <r>    1.8289    1.0000 </r>
       <r>    1.8289    1.0000 </r>
       <r>    2.5905    1.0000 </r>
       <r>    2.5905    1.0000 </r>
       <r>    8.3628    0.0000 </r>
       <r>    8.3628    0.0000 </r>
       <r>    8.8567    0.0000 </r>
       <r>    8.8567    0.0000 </r>
       <r>    9.6278    0.0000 </r>
       <r>    9.6278    0.0000 </r>
       <r>   10.1422    0.0000 </r>
       <r>   10.1625    0.0000 </r>
      </set>
      <set comment="kpoint 6">
       <r>  -38.0643    1.0000 </r>
       <r>  -38.0643    1.0000 </r>
       <r>  -38.0643    1.0000 </r>
       <r>  -38.0643    1.0000 </r>
       <r>  -38.0624    1.0000 </r>
       <r>  -38.0624    1.0000 </r>
       <r>  -38.0624    1.0000 </r>
       <r>  -38.0624    1.0000 </r>
       <r>  -38.0606    1.0000 </r>
       <r>  -38.0606    1.0000 </r>
       <r>  -38.0606    1.0000 </r>
       <r>  -38.0606    1.0000 </r>
       <r>   -8.0939    1.0000 </r>
       <r>   -8.0939    1.0000 </r>
       <r>   -8.0939    1.0000 </r>
       <r>   -8.0939    1.0000 </r>
       <r>   -0.4041    1.0000 </r>
       <r>   -0.4041    1.0000 </r>
       <r>   -0.4041    1.0000 </r>
       <r>   -0.4041    1.0000 </r>
       <r>    0.9634    1.0000 </r>
       <r>    0.9634    1.0000 </r>
       <r>    0.9634    1.0000 </r>
       <r>    0.9634    1.0000 </r>
       <r>    2.6379    1.0000 </r>
       <r>    2.6379    1.0000 </r>
       <r>    2.6379    1.0000 </r>
       <r>    2.6379    1.0000 </r>
       <r>    8.7890    0.0000 </r>
       <r>    8.7890    0.0000 </r>
       <r>    8.7890    0.0000 </r>
       <r>    8.7890    0.0000 </r>
       <r>   10.5677    0.0000 </r>
       <r>   10.5677    0.0000 </r>
       <r>   10.5678    0.0000 </r>
       <r>   10.5737    0.0000 </r>
      </set>
      <set comment="kpoint 7">
       <r>  -38.0650    1.0000 </r>
       <r>  -38.0650    1.0000 </r>
       <r>  -38.0650    1.0000 </r>
       <r>  -38.0630    1.0000 </r>
       <r>  -38.0623    1.0000 </r>
       <r>  -38.0623    1.0000 </r>
       <r>  -38.0623    1.0000 </r>
       <r>  -38.0615    1.0000 </r>
       <r>  -38.0615    1.0000 </r>
       <r>  -38.0615    1.0000 </r>
       <r>  -38.0602    1.0000 </r>
       <r>  -38.0602    1.0000 </r>
       <r>   -8.7437    1.0000 </r>
       <r>   -7.8658    1.0000 </r>
       <r>   -7.8658    1.0000 </r>
       <r>   -7.8658    1.0000 </r>
       <r>   -0.7300    1.0000 </r>
       <r>   -0.7300    1.0000 </r>
       <r>   -0.7300    1.0000 </r>
       <r>    0.4636    1.0000 </r>
       <r>    1.0833    1.0000 </r>
       <r>    1.0833    1.0000 </r>
       <r>    1.0833    1.0000 </r>
       <r>    2.0728    1.0000 </r>
       <r>    2.0728    1.0000 </r>
       <r>    2.0728    1.0000 </r>
       <r>    2.9371    1.0000 </r>
       <r>    2.9371    1.0000 </r>
       <r>    7.5283    0.0000 </r>
       <r>    7.5283    0.0000 </r>
       <r>    7.5283    0.0000 </r>
       <r>    7.9790    0.0000 </r>
       <r>    9.8456    0.0000 </r>
       <r>    9.8456    0.0000 </r>
       <r>    9.8456    0.0000 </r>
       <r>   10.9590    0.0000 </r>
      </set>
      <set comment="kpoint 8">
       <r>  -38.0651    1.0000 </r>
       <r>  -38.0651    1.0000 </r>
       <r>  -38.0645    1.0000 </r>
       <r>  -38.0645    1.0000 </r>
       <r>  -38.0622    1.0000 </r>
       <r>  -38.0622    1.0000 </r>
       <r>  -38.0612    1.0000 </r>
       <r>  -38.0612    1.0000 </r>
       <r>  -38.0608    1.0000 </r>
       <r>  -38.0608    1.0000 </r>
       <r>  -38.0608    1.0000 </r>
       <r>  -38.0608    1.0000 </r>
       <r>   -8.3194    1.0000 </r>
       <r>   -8.3194    1.0000 </r>
       <r>   -7.8350    1.0000 </r>
       <r>   -7.8350    1.0000 </r>
       <r>   -0.9875    1.0000 </r>
       <r>   -0.9875    1.0000 </r>
       <r>   -0.4583    1.0000 </r>
       <r>   -0.4583    1.0000 </r>
       <r>    1.1512    1.0000 </r>
       <r>    1.1512    1.0000 </r>
       <r>    2.1256    1.0000 </r>
       <r>    2.1256    1.0000 </r>
       <r>    2.3563    1.0000 </r>
       <r>    2.3563    1.0000 </r>
       <r>    2.4776    1.0000 </r>
       <r>    2.4776    1.0000 </r>
       <r>    8.3486    0.0000 </r>
       <r>    8.3486    0.0000 </r>
       <r>    8.6909    0.0000 </r>
       <r>    8.6909    0.0000 </r>
       <r>    9.1803    0.0000 </r>
       <r>    9.1803    0.0000 </r>
       <r>    9.7317    0.0000 </r>
       <r>    9.7317    0.0000 </r>
      </set>
      <set comment="kpoint 9">
       <r>  -38.0654    1.0000 </r>
       <r>  -38.0654    1.0000 </r>
       <r>  -38.0654    1.0000 </r>
       <r>  -38.0654    1.0000 </r>
       <r>  -38.0614    1.0000 </r>
       <r>  -38.0614    1.0000 </r>
       <r>  -38.0614    1.0000 </r>
       <r>  -38.0614    1.0000 </r>
       <r>  -38.0607    1.0000 </r>
       <r>  -38.0607    1.0000 </r>
       <r>  -38.0607    1.0000 </r>
       <r>  -38.0607    1.0000 </r>
       <r>   -8.0580    1.0000 </r>
       <r>   -8.0580    1.0000 </r>
       <r>   -8.0580    1.0000 </r>
       <r>   -8.0580    1.0000 </r>
       <r>   -1.0929    1.0000 </r>
       <r>   -1.0929    1.0000 </r>
       <r>   -1.0929    1.0000 </r>
       <r>   -1.0929    1.0000 </r>
       <r>    1.9208    1.0000 </r>
       <r>    1.9208    1.0000 </r>
       <r>    1.9208    1.0000 </r>
       <r>    1.9208    1.0000 </r>
       <r>    2.6573    1.0000 </r>
       <r>    2.6573    1.0000 </r>
       <r>    2.6573    1.0000 </r>
       <r>    2.6573    1.0000 </r>
       <r>    8.4075    0.0000 </r>
       <r>    8.4075    0.0000 </r>
       <r>    8.4075    0.0000 </r>
       <r>    8.4075    0.0000 </r>
       <r>    9.6008    0.0000 </r>
       <r>    9.6008    0.0000 </r>
       <r>    9.6008    0.0000 </r>
       <r>    9.6008    0.0000 </r>
      </set>
      <set comment="kpoint 10">
       <r>  -38.0660    1.0000 </r>
       <r>  -38.0660    1.0000 </r>
       <r>  -38.0660    1.0000 </r>
       <r>  -38.0660    1.0000 </r>
       <r>  -38.0606    1.0000 </r>
       <r>  -38.0606    1.0000 </r>
       <r>  -38.0606    1.0000 </r>
       <r>  -38.0606    1.0000 </r>
       <r>  -38.0606    1.0000 </r>
       <r>  -38.0606    1.0000 </r>
       <r>  -38.0606    1.0000 </r>
       <r>  -38.0606    1.0000 </r>
       <r>   -8.0209    1.0000 </r>
       <r>   -8.0209    1.0000 </r>
       <r>   -8.0209    1.0000 </r>
       <r>   -8.0209    1.0000 </r>
       <r>   -1.5086    1.0000 </r>
       <r>   -1.5086    1.0000 </r>
       <r>   -1.5086    1.0000 </r>
       <r>   -1.5086    1.0000 </r>
       <r>    2.6771    1.0000 </r>
       <r>    2.6771    1.0000 </r>
       <r>    2.6771    1.0000 </r>
       <r>    2.6771    1.0000 </r>
       <r>    2.6771    1.0000 </r>
       <r>    2.6771    1.0000 </r>
       <r>    2.6771    1.0000 </r>
       <r>    2.6771    1.0000 </r>
       <r>    7.6112    0.0000 </r>
       <r>    7.6112    0.0000 </r>
       <r>    7.6112    0.0000 </r>
       <r>    7.6112    0.0000 </r>
       <r>   10.0462    0.0000 </r>
       <r>   10.0462    0.0000 </r>
       <r>   10.0462    0.0000 </r>
       <r>   10.0462    0.0000 </r>
      </set>
     </set>
    </set>
   </array>
  </eigenvalues>
  <separator name="orbital magnetization" >
   <v name="MAGDIPOLOUT">      0.00000000      0.00000000      0.00000000</v>
  </separator>
  <dos>
   <i name="efermi">      3.33990780 </i>
   <total>
    <array>
     <dimension dim="1">gridpoints</dimension>
     <dimension dim="2">spin</dimension>
     <field>energy</field>
     <field>total</field>
     <field>integrated</field>
     <set>
      <set comment="spin 1">
       <r>   -40.5250     0.0000     0.0000 </r>
       <r>   -40.3447     0.0000     0.0000 </r>
       <r>   -40.1644     0.0000     0.0000 </r>
       <r>   -39.9841     0.0000     0.0000 </r>
       <r>   -39.8037     0.0000     0.0000 </r>
       <r>   -39.6234     0.0000     0.0000 </r>
       <r>   -39.4431     0.0000     0.0000 </r>
       <r>   -39.2627     0.0000     0.0000 </r>
       <r>   -39.0824     0.0000     0.0000 </r>
       <r>   -38.9021     0.0000     0.0000 </r>
       <r>   -38.7218     0.0000     0.0000 </r>
       <r>   -38.5414     0.0000     0.0000 </r>
       <r>   -38.3611     0.0000     0.0000 </r>
       <r>   -38.1808     0.0000     0.0000 </r>
       <r>   -38.0004   133.0903    24.0000 </r>
       <r>   -37.8201     0.0000    24.0000 </r>
       <r>   -37.6398     0.0000    24.0000 </r>
       <r>   -37.4595     0.0000    24.0000 </r>
       <r>   -37.2791     0.0000    24.0000 </r>
       <r>   -37.0988     0.0000    24.0000 </r>
       <r>   -36.9185     0.0000    24.0000 </r>
       <r>   -36.7381     0.0000    24.0000 </r>
       <r>   -36.5578     0.0000    24.0000 </r>
       <r>   -36.3775     0.0000    24.0000 </r>
       <r>   -36.1972     0.0000    24.0000 </r>
       <r>   -36.0168     0.0000    24.0000 </r>
       <r>   -35.8365     0.0000    24.0000 </r>
       <r>   -35.6562     0.0000    24.0000 </r>
       <r>   -35.4758     0.0000    24.0000 </r>
       <r>   -35.2955     0.0000    24.0000 </r>
       <r>   -35.1152     0.0000    24.0000 </r>
       <r>   -34.9349     0.0000    24.0000 </r>
       <r>   -34.7545     0.0000    24.0000 </r>
       <r>   -34.5742     0.0000    24.0000 </r>
       <r>   -34.3939     0.0000    24.0000 </r>
       <r>   -34.2135     0.0000    24.0000 </r>
       <r>   -34.0332     0.0000    24.0000 </r>
       <r>   -33.8529     0.0000    24.0000 </r>
       <r>   -33.6726     0.0000    24.0000 </r>
       <r>   -33.4922     0.0000    24.0000 </r>
       <r>   -33.3119     0.0000    24.0000 </r>
       <r>   -33.1316     0.0000    24.0000 </r>
       <r>   -32.9512     0.0000    24.0000 </r>
       <r>   -32.7709     0.0000    24.0000 </r>
       <r>   -32.5906     0.0000    24.0000 </r>
       <r>   -32.4103     0.0000    24.0000 </r>
       <r>   -32.2299     0.0000    24.0000 </r>
       <r>   -32.0496     0.0000    24.0000 </r>
       <r>   -31.8693     0.0000    24.0000 </r>
       <r>   -31.6889     0.0000    24.0000 </r>
       <r>   -31.5086     0.0000    24.0000 </r>
       <r>   -31.3283     0.0000    24.0000 </r>
       <r>   -31.1480     0.0000    24.0000 </r>
       <r>   -30.9676     0.0000    24.0000 </r>
       <r>   -30.7873     0.0000    24.0000 </r>
       <r>   -30.6070     0.0000    24.0000 </r>
       <r>   -30.4266     0.0000    24.0000 </r>
       <r>   -30.2463     0.0000    24.0000 </r>
       <r>   -30.0660     0.0000    24.0000 </r>
       <r>   -29.8857     0.0000    24.0000 </r>
       <r>   -29.7053     0.0000    24.0000 </r>
       <r>   -29.5250     0.0000    24.0000 </r>
       <r>   -29.3447     0.0000    24.0000 </r>
       <r>   -29.1643     0.0000    24.0000 </r>
       <r>   -28.9840     0.0000    24.0000 </r>
       <r>   -28.8037     0.0000    24.0000 </r>
       <r>   -28.6234     0.0000    24.0000 </r>
       <r>   -28.4430     0.0000    24.0000 </r>
       <r>   -28.2627     0.0000    24.0000 </r>
       <r>   -28.0824     0.0000    24.0000 </r>
       <r>   -27.9020     0.0000    24.0000 </r>
       <r>   -27.7217     0.0000    24.0000 </r>
       <r>   -27.5414     0.0000    24.0000 </r>
       <r>   -27.3611     0.0000    24.0000 </r>
       <r>   -27.1807     0.0000    24.0000 </r>
       <r>   -27.0004     0.0000    24.0000 </r>
       <r>   -26.8201     0.0000    24.0000 </r>
       <r>   -26.6397     0.0000    24.0000 </r>
       <r>   -26.4594     0.0000    24.0000 </r>
       <r>   -26.2791     0.0000    24.0000 </r>
       <r>   -26.0988     0.0000    24.0000 </r>
       <r>   -25.9184     0.0000    24.0000 </r>
       <r>   -25.7381     0.0000    24.0000 </r>
       <r>   -25.5578     0.0000    24.0000 </r>
       <r>   -25.3774     0.0000    24.0000 </r>
       <r>   -25.1971     0.0000    24.0000 </r>
       <r>   -25.0168     0.0000    24.0000 </r>
       <r>   -24.8365     0.0000    24.0000 </r>
       <r>   -24.6561     0.0000    24.0000 </r>
       <r>   -24.4758     0.0000    24.0000 </r>
       <r>   -24.2955     0.0000    24.0000 </r>
       <r>   -24.1151     0.0000    24.0000 </r>
       <r>   -23.9348     0.0000    24.0000 </r>
       <r>   -23.7545     0.0000    24.0000 </r>
       <r>   -23.5742     0.0000    24.0000 </r>
       <r>   -23.3938     0.0000    24.0000 </r>
       <r>   -23.2135     0.0000    24.0000 </r>
       <r>   -23.0332     0.0000    24.0000 </r>
       <r>   -22.8528     0.0000    24.0000 </r>
       <r>   -22.6725     0.0000    24.0000 </r>
       <r>   -22.4922     0.0000    24.0000 </r>
       <r>   -22.3119     0.0000    24.0000 </r>
       <r>   -22.1315     0.0000    24.0000 </r>
       <r>   -21.9512     0.0000    24.0000 </r>
       <r>   -21.7709     0.0000    24.0000 </r>
       <r>   -21.5905     0.0000    24.0000 </r>
       <r>   -21.4102     0.0000    24.0000 </r>
       <r>   -21.2299     0.0000    24.0000 </r>
       <r>   -21.0495     0.0000    24.0000 </r>
       <r>   -20.8692     0.0000    24.0000 </r>
       <r>   -20.6889     0.0000    24.0000 </r>
       <r>   -20.5086     0.0000    24.0000 </r>
       <r>   -20.3282     0.0000    24.0000 </r>
       <r>   -20.1479     0.0000    24.0000 </r>
       <r>   -19.9676     0.0000    24.0000 </r>
       <r>   -19.7872     0.0000    24.0000 </r>
       <r>   -19.6069     0.0000    24.0000 </r>
       <r>   -19.4266     0.0000    24.0000 </r>
       <r>   -19.2463     0.0000    24.0000 </r>
       <r>   -19.0659     0.0000    24.0000 </r>
       <r>   -18.8856     0.0000    24.0000 </r>
       <r>   -18.7053     0.0000    24.0000 </r>
       <r>   -18.5249     0.0000    24.0000 </r>
       <r>   -18.3446     0.0000    24.0000 </r>
       <r>   -18.1643     0.0000    24.0000 </r>
       <r>   -17.9840     0.0000    24.0000 </r>
       <r>   -17.8036     0.0000    24.0000 </r>
       <r>   -17.6233     0.0000    24.0000 </r>
       <r>   -17.4430     0.0000    24.0000 </r>
       <r>   -17.2626     0.0000    24.0000 </r>
       <r>   -17.0823     0.0000    24.0000 </r>
       <r>   -16.9020     0.0000    24.0000 </r>
       <r>   -16.7217     0.0000    24.0000 </r>
       <r>   -16.5413     0.0000    24.0000 </r>
       <r>   -16.3610     0.0000    24.0000 </r>
       <r>   -16.1807     0.0000    24.0000 </r>
       <r>   -16.0003     0.0000    24.0000 </r>
       <r>   -15.8200     0.0000    24.0000 </r>
       <r>   -15.6397     0.0000    24.0000 </r>
       <r>   -15.4594     0.0000    24.0000 </r>
       <r>   -15.2790     0.0000    24.0000 </r>
       <r>   -15.0987     0.0000    24.0000 </r>
       <r>   -14.9184     0.0000    24.0000 </r>
       <r>   -14.7380     0.0000    24.0000 </r>
       <r>   -14.5577     0.0000    24.0000 </r>
       <r>   -14.3774     0.0000    24.0000 </r>
       <r>   -14.1971     0.0000    24.0000 </r>
       <r>   -14.0167     0.0000    24.0000 </r>
       <r>   -13.8364     0.0000    24.0000 </r>
       <r>   -13.6561     0.0000    24.0000 </r>
       <r>   -13.4757     0.0000    24.0000 </r>
       <r>   -13.2954     0.0000    24.0000 </r>
       <r>   -13.1151     0.0000    24.0000 </r>
       <r>   -12.9348     0.0000    24.0000 </r>
       <r>   -12.7544     0.0000    24.0000 </r>
       <r>   -12.5741     0.0000    24.0000 </r>
       <r>   -12.3938     0.0000    24.0000 </r>
       <r>   -12.2134     0.0000    24.0000 </r>
       <r>   -12.0331     0.0000    24.0000 </r>
       <r>   -11.8528     0.0000    24.0000 </r>
       <r>   -11.6725     0.0000    24.0000 </r>
       <r>   -11.4921     0.0000    24.0000 </r>
       <r>   -11.3118     0.0000    24.0000 </r>
       <r>   -11.1315     0.0000    24.0000 </r>
       <r>   -10.9511     0.0000    24.0000 </r>
       <r>   -10.7708     0.0000    24.0000 </r>
       <r>   -10.5905     0.0000    24.0000 </r>
       <r>   -10.4102     0.0000    24.0000 </r>
       <r>   -10.2298     0.0000    24.0000 </r>
       <r>   -10.0495     0.0000    24.0000 </r>
       <r>    -9.8692     0.0000    24.0000 </r>
       <r>    -9.6888     0.0000    24.0000 </r>
       <r>    -9.5085     0.0000    24.0000 </r>
       <r>    -9.3282     0.0000    24.0000 </r>
       <r>    -9.1479     0.0000    24.0312 </r>
       <r>    -8.9675     0.0000    24.2188 </r>
       <r>    -8.7872     0.0000    24.5938 </r>
       <r>    -8.6069     0.0000    24.8438 </r>
       <r>    -8.4265     3.5932    25.6792 </r>
       <r>    -8.2462     4.1591    26.5312 </r>
       <r>    -8.0659     2.6246    27.0045 </r>
       <r>    -7.8856     4.9080    28.6663 </r>
       <r>    -7.7052     4.1591    30.9688 </r>
       <r>    -7.5249     0.0000    32.0000 </r>
       <r>    -7.3446     0.0000    32.0000 </r>
       <r>    -7.1642     0.0000    32.0000 </r>
       <r>    -6.9839     0.0000    32.0000 </r>
       <r>    -6.8036     0.0000    32.0000 </r>
       <r>    -6.6233     0.0000    32.0000 </r>
       <r>    -6.4429     0.0000    32.0000 </r>
       <r>    -6.2626     0.0000    32.0000 </r>
       <r>    -6.0823     0.0000    32.0000 </r>
       <r>    -5.9019     0.0000    32.0000 </r>
       <r>    -5.7216     0.0000    32.0000 </r>
       <r>    -5.5413     0.0000    32.0000 </r>
       <r>    -5.3610     0.0000    32.0000 </r>
       <r>    -5.1806     0.0000    32.0000 </r>
       <r>    -5.0003     0.0000    32.0000 </r>
       <r>    -4.8200     0.0000    32.0000 </r>
       <r>    -4.6396     0.0000    32.0000 </r>
       <r>    -4.4593     0.0000    32.0000 </r>
       <r>    -4.2790     0.0000    32.0000 </r>
       <r>    -4.0987     0.0000    32.0000 </r>
       <r>    -3.9183     0.0000    32.0000 </r>
       <r>    -3.7380     0.0000    32.0000 </r>
       <r>    -3.5577     0.0000    32.0000 </r>
       <r>    -3.3773     0.0000    32.0000 </r>
       <r>    -3.1970     0.0000    32.0000 </r>
       <r>    -3.0167     0.0000    32.0000 </r>
       <r>    -2.8364     0.0000    32.0000 </r>
       <r>    -2.6560     0.0000    32.0000 </r>
       <r>    -2.4757     0.0000    32.0000 </r>
       <r>    -2.2954     0.0000    32.0000 </r>
       <r>    -2.1150     0.0000    32.0000 </r>
       <r>    -1.9347     0.0000    32.0000 </r>
       <r>    -1.7544     0.0000    32.0000 </r>
       <r>    -1.5740     0.0000    32.0000 </r>
       <r>    -1.3937     0.0000    32.1250 </r>
       <r>    -1.2134     0.0000    32.1250 </r>
       <r>    -1.0331     4.1591    32.8750 </r>
       <r>    -0.8527     0.5106    33.7171 </r>
       <r>    -0.6724     4.1591    34.4688 </r>
       <r>    -0.4921     0.0000    34.8438 </r>
       <r>    -0.3117     2.0795    38.0312 </r>
       <r>    -0.1314     0.0000    38.0312 </r>
       <r>     0.0489     0.0000    38.0313 </r>
       <r>     0.2292     4.1584    39.5311 </r>
       <r>     0.4096     0.0000    40.2812 </r>
       <r>     0.5899     0.0000    40.5312 </r>
       <r>     0.7702     1.0398    40.7188 </r>
       <r>     0.9506     1.1124    40.9193 </r>
       <r>     1.1309     4.1676    42.4078 </r>
       <r>     1.3112     5.7424    44.5668 </r>
       <r>     1.4915     0.0000    44.6562 </r>
       <r>     1.6719     1.0543    44.8464 </r>
       <r>     1.8522    10.3954    47.4683 </r>
       <r>     2.0325     0.0000    48.5938 </r>
       <r>     2.2129     0.0190    50.0972 </r>
       <r>     2.3932     4.1591    51.4062 </r>
       <r>     2.5735     2.1092    52.5366 </r>
       <r>     2.7538     1.3864    54.6562 </r>
       <r>     2.9342     2.2973    55.0705 </r>
       <r>     3.1145     0.0000    55.5313 </r>
       <r>     3.2948     0.5199    56.0000 </r>
       <r>     3.4752     0.0000    56.0000 </r>
       <r>     3.6555     0.0000    56.0000 </r>
       <r>     3.8358     0.0000    56.0000 </r>
       <r>     4.0161     0.0000    56.0000 </r>
       <r>     4.1965     0.0000    56.0000 </r>
       <r>     4.3768     0.0000    56.0000 </r>
       <r>     4.5571     0.0000    56.0000 </r>
       <r>     4.7375     0.0000    56.0000 </r>
       <r>     4.9178     0.0000    56.0000 </r>
       <r>     5.0981     0.0000    56.0000 </r>
       <r>     5.2784     0.0000    56.0000 </r>
       <r>     5.4588     0.0000    56.0000 </r>
       <r>     5.6391     0.0000    56.0000 </r>
       <r>     5.8194     0.0000    56.0000 </r>
       <r>     5.9998     0.0000    56.0938 </r>
       <r>     6.1801     0.0000    56.0938 </r>
       <r>     6.3604     0.0000    56.0938 </r>
       <r>     6.5407     0.7566    56.2302 </r>
       <r>     6.7211     0.1733    56.3125 </r>
       <r>     6.9014     0.0413    56.3200 </r>
       <r>     7.0817     2.0795    57.0625 </r>
       <r>     7.2621     0.0000    57.0625 </r>
       <r>     7.4424     0.1939    57.0975 </r>
       <r>     7.6227     1.1770    58.7748 </r>
       <r>     7.8030     0.4891    58.8694 </r>
       <r>     7.9834     1.0150    59.3393 </r>
       <r>     8.1637     0.0000    59.5938 </r>
       <r>     8.3440     3.0096    60.1365 </r>
       <r>     8.5244     0.0000    62.4062 </r>
       <r>     8.7047     6.1328    63.5122 </r>
       <r>     8.8850     4.1661    64.8450 </r>
       <r>     9.0653     0.0000    65.5938 </r>
       <r>     9.2457     4.1591    66.3438 </r>
       <r>     9.4260     0.0000    66.3438 </r>
       <r>     9.6063     3.2683    66.9331 </r>
       <r>     9.7867     4.1592    68.5938 </r>
       <r>     9.9670     0.0000    69.7188 </r>
       <r>    10.1473     1.9999    70.2044 </r>
       <r>    10.3276     0.0499    70.7903 </r>
       <r>    10.5080     0.0000    71.1562 </r>
       <r>    10.6883     0.0000    71.5312 </r>
       <r>    10.8686     0.0000    71.5312 </r>
       <r>    11.0490     0.4661    71.8653 </r>
       <r>    11.2293     0.0000    72.0000 </r>
       <r>    11.4096     0.0000    72.0000 </r>
       <r>    11.5899     0.0000    72.0000 </r>
       <r>    11.7703     0.0000    72.0000 </r>
       <r>    11.9506     0.0000    72.0000 </r>
       <r>    12.1309     0.0000    72.0000 </r>
       <r>    12.3113     0.0000    72.0000 </r>
       <r>    12.4916     0.0000    72.0000 </r>
       <r>    12.6719     0.0000    72.0000 </r>
       <r>    12.8522     0.0000    72.0000 </r>
       <r>    13.0326     0.0000    72.0000 </r>
       <r>    13.2129     0.0000    72.0000 </r>
       <r>    13.3932     0.0000    72.0000 </r>
       <r>    13.5736     0.0000    72.0000 </r>
      </set>
     </set>
    </array>
   </total>
  </dos>
 </calculation>
 <structure name="finalpos" >
  <crystal>
   <varray name="basis" >
    <v>       5.24915134       0.00000000       0.00000000 </v>
    <v>       0.00000000       5.24915134       0.00000000 </v>
    <v>       0.00000000       0.00000000       5.24915134 </v>
   </varray>
   <i name="volume">    144.63296307 </i>
   <varray name="rec_basis" >
    <v>       0.19050699       0.00000000       0.00000000 </v>
    <v>       0.00000000       0.19050699       0.00000000 </v>
    <v>       0.00000000       0.00000000       0.19050699 </v>
   </varray>
  </crystal>
  <varray name="positions" >
   <v>       0.00000000       0.00000000       0.00000000 </v>
   <v>       0.00000000       0.50000000       0.50000000 </v>
   <v>       0.50000000       0.00000000       0.50000000 </v>
   <v>       0.50000000       0.50000000       0.00000000 </v>
   <v>       0.50000000       0.00000000       0.00000000 </v>
   <v>       0.50000000       0.50000000       0.50000000 </v>
   <v>       0.00000000       0.00000000       0.50000000 </v>
   <v>       0.00000000       0.50000000       0.00000000 </v>
  </varray>
 </structure>
</modeling>
