    8    8   20    1
  0.1720993E+02  0.5163645E-09  0.5163645E-09  0.5163645E-09  0.5000000E-15
  1.000000000000000E-004
  CAR 
 unknown system                          
     56     10     36
 
  0.0000000E+00  0.0000000E+00  0.0000000E+00  0.1562500E-01
    1      -37.532816
    2      -37.532816
    3      -37.532816
    4      -37.528715
    5      -37.528715
    6      -37.528715
    7      -37.528715
    8      -37.528715
    9      -37.528715
   10      -37.525673
   11      -37.525673
   12      -37.525673
   13       -9.142947
   14       -7.359256
   15       -7.359256
   16       -7.359256
   17       -0.695890
   18       -0.695890
   19       -0.695890
   20        1.920309
   21        1.920309
   22        1.920309
   23        1.920309
   24        1.920309
   25        1.920309
   26        3.677256
   27        3.677256
   28        3.677256
   29        6.432631
   30        6.432631
   31        6.432631
   32        7.453078
   33        7.846922
   34        7.846922
   35        7.846922
   36       11.513569
 
  0.2500000E+00  0.0000000E+00  0.0000000E+00  0.9375000E-01
    1      -37.532236
    2      -37.532236
    3      -37.531820
    4      -37.529350
    5      -37.529350
    6      -37.528762
    7      -37.528762
    8      -37.528331
    9      -37.528331
   10      -37.526704
   11      -37.526137
   12      -37.526137
   13       -8.930796
   14       -7.688508
   15       -7.333219
   16       -7.333219
   17       -0.437558
   18       -0.437558
   19       -0.204483
   20        1.317246
   21        1.317246
   22        1.532570
   23        1.532570
   24        2.118019
   25        2.118019
   26        2.637743
   27        3.333965
   28        3.333965
   29        7.079686
   30        7.478015
   31        7.478015
   32        8.168298
   33        8.614007
   34        8.996338
   35        8.996338
   36       10.516917
 
  0.5000000E+00  0.0000000E+00  0.0000000E+00  0.4687500E-01
    1      -37.530690
    2      -37.530690
    3      -37.530690
    4      -37.530690
    5      -37.529485
    6      -37.529485
    7      -37.528655
    8      -37.528655
    9      -37.527240
   10      -37.527240
   11      -37.527239
   12      -37.527239
   13       -8.364381
   14       -8.364381
   15       -7.306697
   16       -7.306697
   17        0.298572
   18        0.298572
   19        0.298572
   20        0.298572
   21        1.036831
   22        1.036831
   23        1.216976
   24        1.216976
   25        2.658922
   26        2.658922
   27        2.658922
   28        2.658922
   29        8.703613
   30        8.703613
   31        8.980592
   32        8.980592
   33        9.107372
   34        9.107372
   35       11.553454
   36       11.553699
 
  0.2500000E+00  0.2500000E+00  0.0000000E+00  0.1875000E+00
    1      -37.531782
    2      -37.531782
    3      -37.531577
    4      -37.530224
    5      -37.528843
    6      -37.528843
    7      -37.528126
    8      -37.528062
    9      -37.528058
   10      -37.528058
   11      -37.526522
   12      -37.525775
   13       -8.731793
   14       -7.611194
   15       -7.611194
   16       -7.356064
   17       -0.228778
   18       -0.228778
   19       -0.182619
   20        0.354833
   21        1.536579
   22        1.536579
   23        1.668271
   24        2.011168
   25        2.011168
   26        2.249704
   27        2.923008
   28        3.560211
   29        7.528025
   30        8.027289
   31        8.027289
   32        9.109186
   33        9.270107
   34        9.270107
   35       10.311165
   36       10.769932
 
  0.5000000E+00  0.2500000E+00  0.0000000E+00  0.1875000E+00
    1      -37.531335
    2      -37.531335
    3      -37.530373
    4      -37.530373
    5      -37.530178
    6      -37.530178
    7      -37.527761
    8      -37.527761
    9      -37.527699
   10      -37.527699
   11      -37.526720
   12      -37.526720
   13       -8.209761
   14       -8.209761
   15       -7.455998
   16       -7.455998
   17       -0.179754
   18       -0.179754
   19        0.498221
   20        0.498221
   21        0.541699
   22        0.541699
   23        2.143761
   24        2.143761
   25        2.152847
   26        2.152847
   27        2.961405
   28        2.961405
   29        8.914235
   30        8.914235
   31        9.508645
   32        9.508645
   33       10.024793
   34       10.024793
   35       10.745072
   36       10.813063
 
  0.5000000E+00  0.5000000E+00  0.0000000E+00  0.4687500E-01
    1      -37.531295
    2      -37.531295
    3      -37.531295
    4      -37.531295
    5      -37.528899
    6      -37.528899
    7      -37.528899
    8      -37.528899
    9      -37.526748
   10      -37.526748
   11      -37.526748
   12      -37.526748
   13       -7.831209
   14       -7.831209
   15       -7.831209
   16       -7.831209
   17       -0.157507
   18       -0.157507
   19       -0.157507
   20       -0.157507
   21        1.226314
   22        1.226314
   23        1.226314
   24        1.226314
   25        3.007382
   26        3.007382
   27        3.007382
   28        3.007382
   29        9.287573
   30        9.287573
   31        9.287573
   32        9.287573
   33       11.364180
   34       11.374087
   35       11.395086
   36       11.406505
 
  0.2500000E+00  0.2500000E+00  0.2500000E+00  0.1250000E+00
    1      -37.532126
    2      -37.532126
    3      -37.532126
    4      -37.529708
    5      -37.528756
    6      -37.528756
    7      -37.528756
    8      -37.527745
    9      -37.527745
   10      -37.527745
   11      -37.526160
   12      -37.526160
   13       -8.549009
   14       -7.575890
   15       -7.575890
   16       -7.575890
   17       -0.526476
   18       -0.526476
   19       -0.526476
   20        0.770323
   21        1.360654
   22        1.360654
   23        1.360654
   24        2.412995
   25        2.412995
   26        2.412995
   27        3.333810
   28        3.333810
   29        8.026941
   30        8.026941
   31        8.026941
   32        8.589779
   33       10.368874
   34       10.368874
   35       10.368874
   36       11.441401
 
  0.5000000E+00  0.2500000E+00  0.2500000E+00  0.1875000E+00
    1      -37.532549
    2      -37.532549
    3      -37.531498
    4      -37.531498
    5      -37.528822
    6      -37.528822
    7      -37.527454
    8      -37.527454
    9      -37.526935
   10      -37.526935
   11      -37.526890
   12      -37.526890
   13       -8.081670
   14       -8.081670
   15       -7.539643
   16       -7.539643
   17       -0.801729
   18       -0.801729
   19       -0.213917
   20       -0.213917
   21        1.432475
   22        1.432475
   23        2.465444
   24        2.465444
   25        2.709228
   26        2.709228
   27        2.842389
   28        2.842389
   29        8.889591
   30        8.889591
   31        9.236340
   32        9.236340
   33        9.714059
   34        9.714059
   35       10.268621
   36       10.268621
 
  0.5000000E+00  0.5000000E+00  0.2500000E+00  0.9375000E-01
    1      -37.532780
    2      -37.532780
    3      -37.532780
    4      -37.532780
    5      -37.527637
    6      -37.527637
    7      -37.527637
    8      -37.527637
    9      -37.526773
   10      -37.526773
   11      -37.526773
   12      -37.526773
   13       -7.788972
   14       -7.788972
   15       -7.788972
   16       -7.788972
   17       -0.898967
   18       -0.898967
   19       -0.898967
   20       -0.898967
   21        2.247685
   22        2.247685
   23        2.247685
   24        2.247685
   25        3.028134
   26        3.028134
   27        3.028134
   28        3.028134
   29        8.935413
   30        8.935413
   31        8.935413
   32        8.935413
   33       10.136737
   34       10.136737
   35       10.136737
   36       10.136737
 
  0.5000000E+00  0.5000000E+00  0.5000000E+00  0.1562500E-01
    1      -37.533800
    2      -37.533800
    3      -37.533800
    4      -37.533800
    5      -37.526885
    6      -37.526885
    7      -37.526885
    8      -37.526885
    9      -37.526885
   10      -37.526885
   11      -37.526885
   12      -37.526885
   13       -7.745239
   14       -7.745239
   15       -7.745239
   16       -7.745239
   17       -1.342540
   18       -1.342540
   19       -1.342540
   20       -1.342540
   21        3.049272
   22        3.049272
   23        3.049272
   24        3.049272
   25        3.049272
   26        3.049272
   27        3.049272
   28        3.049272
   29        8.111051
   30        8.111051
   31        8.111051
   32        8.111051
   33       10.532028
   34       10.532028
   35       10.532028
   36       10.532028
