<?xml version="1.0" encoding="ISO-8859-1"?>
<modeling>
 <generator>
  <i name="program" type="string">vasp </i>
  <i name="version" type="string">5.3.5  </i>
  <i name="subversion" type="string">31Mar14 (build Nov 07 2014 11:36:17) complex                          parallel </i>
  <i name="platform" type="string">LinuxIFC </i>
  <i name="date" type="string">2015 10 15 </i>
  <i name="time" type="string">01:05:22 </i>
 </generator>
 <incar>
  <i type="string" name="PREC">accurate</i>
  <i type="int" name="IALGO">    38</i>
  <i type="logical" name="ADDGRID"> T  </i>
  <i type="int" name="NELMIN">     5</i>
  <i type="int" name="IBRION">     2</i>
  <i name="EDIFF">      0.00000001</i>
  <i name="EDIFFG">     -0.00000001</i>
  <i type="int" name="NSW">    20</i>
  <i type="int" name="ISIF">     4</i>
  <i name="ENCUT">    525.10770000</i>
  <i type="logical" name="LREAL"> F  </i>
  <i type="int" name="ISMEAR">     0</i>
  <i name="SIGMA">      0.01000000</i>
  <i type="logical" name="LWAVE"> F  </i>
  <i type="logical" name="LCHARG"> F  </i>
  <i type="string" name="GGA"> PS</i>
 </incar>
 <kpoints>
  <generation param="Gamma">
   <v type="int" name="divisions">       4        4        4 </v>
   <v name="usershift">      0.00000000       0.00000000       0.00000000 </v>
   <v name="genvec1">      0.25000000       0.00000000       0.00000000 </v>
   <v name="genvec2">      0.00000000       0.25000000       0.00000000 </v>
   <v name="genvec3">      0.00000000       0.00000000       0.25000000 </v>
   <v name="shift">      0.00000000       0.00000000       0.00000000 </v>
  </generation>
  <varray name="kpointlist" >
   <v>       0.00000000       0.00000000       0.00000000 </v>
   <v>       0.25000000       0.00000000       0.00000000 </v>
   <v>       0.50000000       0.00000000       0.00000000 </v>
   <v>       0.25000000       0.25000000       0.00000000 </v>
   <v>       0.50000000       0.25000000       0.00000000 </v>
   <v>       0.50000000       0.50000000       0.00000000 </v>
   <v>       0.25000000       0.25000000       0.25000000 </v>
   <v>       0.50000000       0.25000000       0.25000000 </v>
   <v>       0.50000000       0.50000000       0.25000000 </v>
   <v>       0.50000000       0.50000000       0.50000000 </v>
  </varray>
  <varray name="weights" >
   <v>       0.01562500 </v>
   <v>       0.09375000 </v>
   <v>       0.04687500 </v>
   <v>       0.18750000 </v>
   <v>       0.18750000 </v>
   <v>       0.04687500 </v>
   <v>       0.12500000 </v>
   <v>       0.18750000 </v>
   <v>       0.09375000 </v>
   <v>       0.01562500 </v>
  </varray>
 </kpoints>
 <parameters>
  <separator name="general" >
   <i type="string" name="SYSTEM">unknown system</i>
   <i type="logical" name="LCOMPAT"> F  </i>
  </separator>
  <separator name="electronic" >
   <i type="string" name="PREC">accura</i>
   <i name="ENMAX">    525.10770000</i>
   <i name="ENAUG">    758.78000000</i>
   <i name="EDIFF">      0.00000001</i>
   <i type="int" name="IALGO">    38</i>
   <i type="int" name="IWAVPR">    11</i>
   <i type="int" name="NBANDS">    36</i>
   <i name="NELECT">     56.00000000</i>
   <i type="int" name="TURBO">     0</i>
   <i type="int" name="IRESTART">     0</i>
   <i type="int" name="NREBOOT">     0</i>
   <i type="int" name="NMIN">     0</i>
   <i name="EREF">      0.00000000</i>
   <separator name="electronic smearing" >
    <i type="int" name="ISMEAR">     0</i>
    <i name="SIGMA">      0.01000000</i>
    <i name="KSPACING">      0.50000000</i>
    <i type="logical" name="KGAMMA"> T  </i>
   </separator>
   <separator name="electronic projectors" >
    <i type="logical" name="LREAL"> F  </i>
    <v name="ROPT">      0.00000000      0.00000000</v>
    <i type="int" name="LMAXPAW">  -100</i>
    <i type="int" name="LMAXMIX">     2</i>
    <i type="logical" name="NLSPLINE"> F  </i>
   </separator>
   <separator name="electronic startup" >
    <i type="int" name="ISTART">     0</i>
    <i type="int" name="ICHARG">     2</i>
    <i type="int" name="INIWAV">     1</i>
   </separator>
   <separator name="electronic spin" >
    <i type="int" name="ISPIN">     1</i>
    <i type="logical" name="LNONCOLLINEAR"> F  </i>
    <v name="MAGMOM">      1.00000000      1.00000000      1.00000000      1.00000000      1.00000000      1.00000000      1.00000000      1.00000000</v>
    <i name="NUPDOWN">     -1.00000000</i>
    <i type="logical" name="LSORBIT"> F  </i>
    <v name="SAXIS">      0.00000000      0.00000000      1.00000000</v>
    <i type="logical" name="LSPIRAL"> F  </i>
    <v name="QSPIRAL">      0.00000000      0.00000000      0.00000000</v>
    <i type="logical" name="LZEROZ"> F  </i>
   </separator>
   <separator name="electronic exchange-correlation" >
    <i type="logical" name="LASPH"> F  </i>
    <i type="logical" name="LMETAGGA"> F  </i>
   </separator>
   <separator name="electronic convergence" >
    <i type="int" name="NELM">    60</i>
    <i type="int" name="NELMDL">    -5</i>
    <i type="int" name="NELMIN">     5</i>
    <i name="ENINI">    525.10770000</i>
    <separator name="electronic convergence detail" >
     <i type="logical" name="LDIAG"> T  </i>
     <i type="logical" name="LSUBROT"> F  </i>
     <i name="WEIMIN">      0.00100000</i>
     <i name="EBREAK">      0.00000000</i>
     <i name="DEPER">      0.30000000</i>
     <i type="int" name="NRMM">     4</i>
     <i name="TIME">      0.40000000</i>
    </separator>
   </separator>
   <separator name="electronic mixer" >
    <i name="AMIX">      0.40000000</i>
    <i name="BMIX">      1.00000000</i>
    <i name="AMIN">      0.10000000</i>
    <i name="AMIX_MAG">      1.60000000</i>
    <i name="BMIX_MAG">      1.00000000</i>
    <separator name="electronic mixer details" >
     <i type="int" name="IMIX">     4</i>
     <i type="int" name="MAXMIX">   -45</i>
     <i name="WC">    100.00000000</i>
     <i type="int" name="INIMIX">     1</i>
     <i type="int" name="MIXPRE">     1</i>
     <i type="int" name="MREMOVE">     5</i>
    </separator>
   </separator>
   <separator name="electronic dipolcorrection" >
    <i type="logical" name="LDIPOL"> F  </i>
    <i type="logical" name="LMONO"> F  </i>
    <i type="int" name="IDIPOL">     0</i>
    <i name="EPSILON">      1.00000000</i>
    <v name="DIPOL">   -100.00000000   -100.00000000   -100.00000000</v>
    <i name="EFIELD">      0.00000000</i>
   </separator>
  </separator>
  <separator name="grids" >
   <i type="int" name="NGX">    40</i>
   <i type="int" name="NGY">    40</i>
   <i type="int" name="NGZ">    40</i>
   <i type="int" name="NGXF">    80</i>
   <i type="int" name="NGYF">    80</i>
   <i type="int" name="NGZF">    80</i>
   <i type="logical" name="ADDGRID"> T  </i>
  </separator>
  <separator name="ionic" >
   <i type="int" name="NSW">    20</i>
   <i type="int" name="IBRION">     2</i>
   <i type="int" name="ISIF">     4</i>
   <i name="PSTRESS">      0.00000000</i>
   <i name="EDIFFG">     -0.00000001</i>
   <i type="int" name="NFREE">     1</i>
   <i name="POTIM">      0.50000000</i>
   <i name="SMASS">     -3.00000000</i>
   <i name="SCALEE">      1.00000000</i>
  </separator>
  <separator name="ionic md" >
   <i name="TEBEG">      0.00010000</i>
   <i name="TEEND">      0.00010000</i>
   <i type="int" name="NBLOCK">     1</i>
   <i type="int" name="KBLOCK">    20</i>
   <i type="int" name="NPACO">   256</i>
   <i name="APACO">     16.00000000</i>
  </separator>
  <separator name="symmetry" >
   <i type="int" name="ISYM">     2</i>
   <i name="SYMPREC">      0.00001000</i>
  </separator>
  <separator name="dos" >
   <i type="logical" name="LORBIT"> F  </i>
   <v name="RWIGS">     -1.00000000     -1.00000000</v>
   <i type="int" name="NEDOS">   301</i>
   <i name="EMIN">     10.00000000</i>
   <i name="EMAX">    -10.00000000</i>
   <i name="EFERMI">      0.00000000</i>
  </separator>
  <separator name="writing" >
   <i type="int" name="NWRITE">     2</i>
   <i type="logical" name="LWAVE"> F  </i>
   <i type="logical" name="LCHARG"> F  </i>
   <i type="logical" name="LPARD"> F  </i>
   <i type="logical" name="LVTOT"> F  </i>
   <i type="logical" name="LVHAR"> F  </i>
   <i type="logical" name="LELF"> F  </i>
   <i type="logical" name="LOPTICS"> F  </i>
   <v name="STM">      0.00000000      0.00000000      0.00000000      0.00000000      0.00000000      0.00000000      0.00000000</v>
  </separator>
  <separator name="performance" >
   <i type="int" name="NPAR">     4</i>
   <i type="int" name="NSIM">     4</i>
   <i type="int" name="NBLK">    -1</i>
   <i type="logical" name="LPLANE"> T  </i>
   <i type="logical" name="LSCALAPACK"> T  </i>
   <i type="logical" name="LSCAAWARE"> F  </i>
   <i type="logical" name="LSCALU"> F  </i>
   <i type="logical" name="LASYNC"> F  </i>
   <i type="logical" name="LORBITALREAL"> F  </i>
  </separator>
  <separator name="miscellaneous" >
   <i type="int" name="IDIOT">     3</i>
   <i type="logical" name="LMUSIC"> F  </i>
   <v name="POMASS">     24.30500000     32.06600000</v>
   <v name="DARWINR">      0.00000000      0.00000000</v>
   <v name="DARWINV">      1.00000000      1.00000000</v>
   <i type="logical" name="LCORR"> T  </i>
  </separator>
  <i type="logical" name="GGA_COMPAT"> T  </i>
  <i type="logical" name="LBERRY"> F  </i>
  <i type="int" name="ICORELEVEL">     0</i>
  <i type="logical" name="LDAU"> F  </i>
  <i type="int" name="I_CONSTRAINED_M">     0</i>
  <separator name="electronic exchange-correlation" >
   <i type="string" name="GGA">PS</i>
   <i type="int" name="VOSKOWN">     0</i>
   <i type="logical" name="LHFCALC"> F  </i>
   <i type="string" name="PRECFOCK"></i>
   <i type="logical" name="LSYMGRAD"> F  </i>
   <i type="logical" name="LHFONE"> F  </i>
   <i type="logical" name="LRHFCALC"> F  </i>
   <i type="logical" name="LTHOMAS"> F  </i>
   <i type="logical" name="LMODELHF"> F  </i>
   <i name="ENCUT4O">     -1.00000000</i>
   <i type="int" name="EXXOEP">     0</i>
   <i type="int" name="FOURORBIT">     0</i>
   <i name="AEXX">      0.00000000</i>
   <i name="HFALPHA">      0.00000000</i>
   <i name="MCALPHA">      0.00000000</i>
   <i name="ALDAX">      1.00000000</i>
   <i name="AGGAX">      1.00000000</i>
   <i name="ALDAC">      1.00000000</i>
   <i name="AGGAC">      1.00000000</i>
   <i type="int" name="NKREDX">     1</i>
   <i type="int" name="NKREDY">     1</i>
   <i type="int" name="NKREDZ">     1</i>
   <i type="logical" name="SHIFTRED"> F  </i>
   <i type="logical" name="ODDONLY"> F  </i>
   <i type="logical" name="EVENONLY"> F  </i>
   <i type="int" name="LMAXFOCK">     0</i>
   <i type="int" name="NMAXFOCKAE">     0</i>
   <i type="logical" name="LFOCKAEDFT"> F  </i>
   <i name="HFSCREEN">      0.00000000</i>
   <i name="HFSCREENC">      0.00000000</i>
   <i type="int" name="NBANDSGWLOW">     0</i>
  </separator>
  <separator name="vdW DFT" >
   <i type="logical" name="LUSE_VDW"> F  </i>
   <i name="Zab_VDW">     -0.84910000</i>
   <i name="PARAM1">      0.12340000</i>
   <i name="PARAM2">      1.00000000</i>
   <i name="PARAM3">      0.00000000</i>
  </separator>
  <separator name="model GW" >
   <i type="int" name="MODEL_GW">     0</i>
   <i name="MODEL_EPS0">     10.32595914</i>
   <i name="MODEL_ALPHA">      1.00000000</i>
  </separator>
  <separator name="linear response parameters" >
   <i type="logical" name="LEPSILON"> F  </i>
   <i type="logical" name="LRPA"> F  </i>
   <i type="logical" name="LNABLA"> F  </i>
   <i type="logical" name="LVEL"> F  </i>
   <i type="int" name="KINTER">     0</i>
   <i name="CSHIFT">      0.10000000</i>
   <i name="OMEGAMAX">     -1.00000000</i>
   <i name="DEG_THRESHOLD">      0.00200000</i>
  </separator>
  <separator name="orbital magnetization" >
   <i type="logical" name="NUCIND"> F  </i>
   <v name="MAGPOS">      0.00000000      0.00000000      0.00000000</v>
   <i type="logical" name="LNICSALL"> T  </i>
   <i type="logical" name="ORBITALMAG"> F  </i>
   <i type="logical" name="LMAGBLOCH"> F  </i>
   <i type="logical" name="LCHIMAG"> F  </i>
   <i type="logical" name="LGAUGE"> T  </i>
   <i type="int" name="MAGATOM">     0</i>
   <v name="MAGDIPOL">      0.00000000      0.00000000      0.00000000</v>
   <v name="AVECCONST">      0.00000000      0.00000000      0.00000000</v>
  </separator>
  <separator name="response functions" >
   <i type="logical" name="LADDER"> F  </i>
   <i type="logical" name="LFXC"> F  </i>
   <i type="logical" name="LHARTREE"> T  </i>
   <i type="int" name="IBSE">     0</i>
   <i type="logical" name="LTCTE"> F  </i>
   <i type="logical" name="LTETE"> F  </i>
   <i type="logical" name="LTRIPLET"> F  </i>
   <i type="logical" name="LFXCEPS"> F  </i>
   <i type="logical" name="LFXHEG"> F  </i>
   <i type="logical" name="L2ORDER"> F  </i>
   <i type="logical" name="LUSEW"> F  </i>
   <i name="ENCUTGW">     -2.00000000</i>
   <i name="ENCUTGWSOFT">     -2.00000000</i>
   <i name="ENCUTLF">     -1.00000000</i>
   <i type="int" name="LMAXMP2">    -1</i>
   <i name="SCISSOR">      0.00000000</i>
   <i type="int" name="NOMEGA">     0</i>
   <i type="int" name="NOMEGAR">     0</i>
   <i type="int" name="NBANDSGW">    -1</i>
   <i type="int" name="NBANDSO">    -1</i>
   <i type="int" name="NBANDSV">    -1</i>
   <i type="int" name="NELM">     1</i>
   <i type="int" name="DIM">     3</i>
   <i type="int" name="ANTIRES">     0</i>
   <i name="OMEGAMAX">    -30.00000000</i>
   <i name="OMEGAMIN">    -30.00000000</i>
   <i name="OMEGATL">   -200.00000000</i>
   <i type="int" name="OMEGAGRID">     0</i>
   <i name="CSHIFT">     -0.10000000</i>
   <i type="logical" name="SELFENERGY"> F  </i>
   <i type="logical" name="LSPECTRAL"> F  </i>
   <i type="logical" name="ODDONLYGW"> F  </i>
   <i type="logical" name="EVENONLYGW"> F  </i>
   <i type="int" name="NKREDLFX">     1</i>
   <i type="int" name="NKREDLFY">     1</i>
   <i type="int" name="NKREDLFZ">     1</i>
   <i type="int" name="MAXMEM">  1800</i>
   <i type="int" name="TELESCOPE">     0</i>
   <i type="int" name="TAUPAR">     1</i>
  </separator>
  <separator name="External order field" >
   <i name="OFIELD_KAPPA">      0.00000000</i>
   <v name="OFIELD_K">      0.00000000      0.00000000      0.00000000</v>
   <i name="OFIELD_Q6_NEAR">      0.00000000</i>
   <i name="OFIELD_Q6_FAR">      0.00000000</i>
   <i name="OFIELD_A">      0.00000000</i>
  </separator>
 </parameters>
 <atominfo>
  <atoms>       8 </atoms>
  <types>       2 </types>
  <array name="atoms" >
   <dimension dim="1">ion</dimension>
   <field type="string">element</field>
   <field type="int">atomtype</field>
   <set>
    <rc><c>Mg</c><c>   1</c></rc>
    <rc><c>Mg</c><c>   1</c></rc>
    <rc><c>Mg</c><c>   1</c></rc>
    <rc><c>Mg</c><c>   1</c></rc>
    <rc><c>S </c><c>   2</c></rc>
    <rc><c>S </c><c>   2</c></rc>
    <rc><c>S </c><c>   2</c></rc>
    <rc><c>S </c><c>   2</c></rc>
   </set>
  </array>
  <array name="atomtypes" >
   <dimension dim="1">type</dimension>
   <field type="int">atomspertype</field>
   <field type="string">element</field>
   <field>mass</field>
   <field>valence</field>
   <field type="string">pseudopotential</field>
   <set>
    <rc><c>   4</c><c>Mg</c><c>     24.30500000</c><c>      8.00000000</c><c>  PAW_PBE Mg_pv 13Apr2007               </c></rc>
    <rc><c>   4</c><c>S </c><c>     32.06600000</c><c>      6.00000000</c><c>  PAW_PBE S 06Sep2000                   </c></rc>
   </set>
  </array>
 </atominfo>
 <structure name="initialpos" >
  <crystal>
   <varray name="basis" >
    <v>       5.16364503       0.00000000       0.00000000 </v>
    <v>       0.00000000       5.16364503       0.00000000 </v>
    <v>       0.00000000       0.00000000       5.16364503 </v>
   </varray>
   <i name="volume">    137.67945523 </i>
   <varray name="rec_basis" >
    <v>       0.19366165       0.00000000       0.00000000 </v>
    <v>       0.00000000       0.19366165       0.00000000 </v>
    <v>       0.00000000       0.00000000       0.19366165 </v>
   </varray>
  </crystal>
  <varray name="positions" >
   <v>       0.00000000       0.00000000       0.00000000 </v>
   <v>       0.00000000       0.50000000       0.50000000 </v>
   <v>       0.50000000       0.00000000       0.50000000 </v>
   <v>       0.50000000       0.50000000       0.00000000 </v>
   <v>       0.50000000       0.00000000       0.00000000 </v>
   <v>       0.50000000       0.50000000       0.50000000 </v>
   <v>       0.00000000       0.00000000       0.50000000 </v>
   <v>       0.00000000       0.50000000       0.00000000 </v>
  </varray>
 </structure>
 <calculation>
  <scstep>
   <time name="dav">    0.31    0.31</time>
   <time name="total">    0.36    0.37</time>
   <energy>
    <i name="alphaZ">    154.21779975 </i>
    <i name="ewald">  -3140.62201186 </i>
    <i name="hartreedc">  -1159.77785329 </i>
    <i name="XCdc">    159.54348280 </i>
    <i name="pawpsdc">   3462.71711756 </i>
    <i name="pawaedc">  -3919.80126840 </i>
    <i name="eentropy">     -0.00096414 </i>
    <i name="bandstr">   -409.61943853 </i>
    <i name="atom">   5321.70543053 </i>
    <i name="e_fr_energy">    468.36229441 </i>
    <i name="e_wo_entrp">    468.36325855 </i>
    <i name="e_0_energy">    468.36277648 </i>
   </energy>
  </scstep>
  <scstep>
   <time name="dav">    0.26    0.26</time>
   <time name="total">    0.26    0.26</time>
   <energy>
    <i name="e_fr_energy">     -3.28040488 </i>
    <i name="e_wo_entrp">     -3.28037134 </i>
    <i name="e_0_energy">     -3.28038811 </i>
   </energy>
  </scstep>
  <scstep>
   <time name="dav">    0.25    0.25</time>
   <time name="total">    0.26    0.26</time>
   <energy>
    <i name="e_fr_energy">    -36.63223579 </i>
    <i name="e_wo_entrp">    -36.63223579 </i>
    <i name="e_0_energy">    -36.63223579 </i>
   </energy>
  </scstep>
  <scstep>
   <time name="dav">    0.27    0.27</time>
   <time name="total">    0.27    0.27</time>
   <energy>
    <i name="e_fr_energy">    -37.66563537 </i>
    <i name="e_wo_entrp">    -37.66563537 </i>
    <i name="e_0_energy">    -37.66563537 </i>
   </energy>
  </scstep>
  <scstep>
   <time name="dav">    0.26    0.26</time>
   <time name="total">    0.32    0.33</time>
   <energy>
    <i name="e_fr_energy">    -37.69384977 </i>
    <i name="e_wo_entrp">    -37.69384977 </i>
    <i name="e_0_energy">    -37.69384977 </i>
   </energy>
  </scstep>
  <scstep>
   <time name="dav">    0.24    0.24</time>
   <time name="total">    0.35    0.35</time>
   <energy>
    <i name="e_fr_energy">    -36.38908072 </i>
    <i name="e_wo_entrp">    -36.38908072 </i>
    <i name="e_0_energy">    -36.38908072 </i>
   </energy>
  </scstep>
  <scstep>
   <time name="dav">    0.27    0.27</time>
   <time name="total">    0.38    0.39</time>
   <energy>
    <i name="e_fr_energy">    -36.23036989 </i>
    <i name="e_wo_entrp">    -36.23036989 </i>
    <i name="e_0_energy">    -36.23036989 </i>
   </energy>
  </scstep>
  <scstep>
   <time name="dav">    0.24    0.24</time>
   <time name="total">    0.35    0.35</time>
   <energy>
    <i name="e_fr_energy">    -36.22394378 </i>
    <i name="e_wo_entrp">    -36.22394378 </i>
    <i name="e_0_energy">    -36.22394378 </i>
   </energy>
  </scstep>
  <scstep>
   <time name="dav">    0.28    0.28</time>
   <time name="total">    0.39    0.39</time>
   <energy>
    <i name="e_fr_energy">    -36.22314872 </i>
    <i name="e_wo_entrp">    -36.22314872 </i>
    <i name="e_0_energy">    -36.22314872 </i>
   </energy>
  </scstep>
  <scstep>
   <time name="dav">    0.27    0.28</time>
   <time name="total">    0.38    0.39</time>
   <energy>
    <i name="e_fr_energy">    -36.22318299 </i>
    <i name="e_wo_entrp">    -36.22318299 </i>
    <i name="e_0_energy">    -36.22318299 </i>
   </energy>
  </scstep>
  <scstep>
   <time name="dav">    0.24    0.24</time>
   <time name="total">    0.35    0.35</time>
   <energy>
    <i name="e_fr_energy">    -36.22317585 </i>
    <i name="e_wo_entrp">    -36.22317585 </i>
    <i name="e_0_energy">    -36.22317585 </i>
   </energy>
  </scstep>
  <scstep>
   <time name="dav">    0.27    0.27</time>
   <time name="total">    0.38    0.38</time>
   <energy>
    <i name="e_fr_energy">    -36.22317523 </i>
    <i name="e_wo_entrp">    -36.22317523 </i>
    <i name="e_0_energy">    -36.22317523 </i>
   </energy>
  </scstep>
  <scstep>
   <time name="dav">    0.28    0.28</time>
   <time name="total">    0.38    0.39</time>
   <energy>
    <i name="e_fr_energy">    -36.22317522 </i>
    <i name="e_wo_entrp">    -36.22317522 </i>
    <i name="e_0_energy">    -36.22317522 </i>
   </energy>
  </scstep>
  <scstep>
   <time name="dav">    0.24    0.24</time>
   <time name="total">    0.35    0.35</time>
   <energy>
    <i name="e_fr_energy">    -36.22317517 </i>
    <i name="e_wo_entrp">    -36.22317517 </i>
    <i name="e_0_energy">    -36.22317517 </i>
   </energy>
  </scstep>
  <scstep>
   <time name="dav">    0.22    0.22</time>
   <time name="total">    0.33    0.34</time>
   <energy>
    <i name="e_fr_energy">    -36.22317521 </i>
    <i name="e_wo_entrp">    -36.22317521 </i>
    <i name="e_0_energy">    -36.22317521 </i>
   </energy>
  </scstep>
  <scstep>
   <time name="dav">    0.16    0.16</time>
   <time name="total">    0.21    0.21</time>
   <energy>
    <i name="alphaZ">    154.21779975 </i>
    <i name="ewald">  -3140.62201186 </i>
    <i name="hartreedc">  -1150.88258467 </i>
    <i name="XCdc">    161.56410259 </i>
    <i name="pawpsdc">   4706.35305327 </i>
    <i name="pawaedc">  -5159.45571055 </i>
    <i name="eentropy">      0.00000000 </i>
    <i name="bandstr">   -929.10325426 </i>
    <i name="atom">   5321.70543053 </i>
    <i name="e_fr_energy">    -36.22317521 </i>
    <i name="e_wo_entrp">    -36.22317521 </i>
    <i name="e_0_energy">    -36.22317521 </i>
   </energy>
  </scstep>
  <structure>
   <crystal>
    <varray name="basis" >
     <v>       5.16364503       0.00000000       0.00000000 </v>
     <v>       0.00000000       5.16364503       0.00000000 </v>
     <v>       0.00000000       0.00000000       5.16364503 </v>
    </varray>
    <i name="volume">    137.67945523 </i>
    <varray name="rec_basis" >
     <v>       0.19366165       0.00000000       0.00000000 </v>
     <v>       0.00000000       0.19366165       0.00000000 </v>
     <v>       0.00000000       0.00000000       0.19366165 </v>
    </varray>
   </crystal>
   <varray name="positions" >
    <v>       0.00000000       0.00000000       0.00000000 </v>
    <v>       0.00000000       0.50000000       0.50000000 </v>
    <v>       0.50000000       0.00000000       0.50000000 </v>
    <v>       0.50000000       0.50000000       0.00000000 </v>
    <v>       0.50000000       0.00000000       0.00000000 </v>
    <v>       0.50000000       0.50000000       0.50000000 </v>
    <v>       0.00000000       0.00000000       0.50000000 </v>
    <v>       0.00000000       0.50000000       0.00000000 </v>
   </varray>
  </structure>
  <varray name="forces" >
   <v>       0.00000000       0.00000000       0.00000000 </v>
   <v>       0.00000000       0.00000000       0.00000000 </v>
   <v>       0.00000000       0.00000000       0.00000000 </v>
   <v>       0.00000000       0.00000000       0.00000000 </v>
   <v>       0.00000000       0.00000000       0.00000000 </v>
   <v>       0.00000000       0.00000000       0.00000000 </v>
   <v>       0.00000000       0.00000000       0.00000000 </v>
   <v>       0.00000000       0.00000000       0.00000000 </v>
  </varray>
  <varray name="stress" >
   <v>       8.09597625       0.00000000       0.00000000 </v>
   <v>       0.00000000       8.09597625       0.00000000 </v>
   <v>       0.00000000       0.00000000       8.09597625 </v>
  </varray>
  <energy>
   <i name="e_fr_energy">    -36.22317521 </i>
   <i name="e_wo_entrp">    -36.22317521 </i>
   <i name="e_0_energy">      0.00000000 </i>
  </energy>
  <time name="totalsc">    6.37    6.42</time>
  <eigenvalues>
   <array>
    <dimension dim="1">band</dimension>
    <dimension dim="2">kpoint</dimension>
    <dimension dim="3">spin</dimension>
    <field>eigene</field>
    <field>occ</field>
    <set>
     <set comment="spin 1">
      <set comment="kpoint 1">
       <r>  -37.5328    1.0000 </r>
       <r>  -37.5328    1.0000 </r>
       <r>  -37.5328    1.0000 </r>
       <r>  -37.5287    1.0000 </r>
       <r>  -37.5287    1.0000 </r>
       <r>  -37.5287    1.0000 </r>
       <r>  -37.5287    1.0000 </r>
       <r>  -37.5287    1.0000 </r>
       <r>  -37.5287    1.0000 </r>
       <r>  -37.5257    1.0000 </r>
       <r>  -37.5257    1.0000 </r>
       <r>  -37.5257    1.0000 </r>
       <r>   -9.1429    1.0000 </r>
       <r>   -7.3593    1.0000 </r>
       <r>   -7.3593    1.0000 </r>
       <r>   -7.3593    1.0000 </r>
       <r>   -0.6959    1.0000 </r>
       <r>   -0.6959    1.0000 </r>
       <r>   -0.6959    1.0000 </r>
       <r>    1.9203    1.0000 </r>
       <r>    1.9203    1.0000 </r>
       <r>    1.9203    1.0000 </r>
       <r>    1.9203    1.0000 </r>
       <r>    1.9203    1.0000 </r>
       <r>    1.9203    1.0000 </r>
       <r>    3.6773    1.0000 </r>
       <r>    3.6773    1.0000 </r>
       <r>    3.6773    1.0000 </r>
       <r>    6.4326    0.0000 </r>
       <r>    6.4326    0.0000 </r>
       <r>    6.4326    0.0000 </r>
       <r>    7.4531    0.0000 </r>
       <r>    7.8469    0.0000 </r>
       <r>    7.8469    0.0000 </r>
       <r>    7.8469    0.0000 </r>
       <r>   11.5136    0.0000 </r>
      </set>
      <set comment="kpoint 2">
       <r>  -37.5322    1.0000 </r>
       <r>  -37.5322    1.0000 </r>
       <r>  -37.5318    1.0000 </r>
       <r>  -37.5293    1.0000 </r>
       <r>  -37.5293    1.0000 </r>
       <r>  -37.5288    1.0000 </r>
       <r>  -37.5288    1.0000 </r>
       <r>  -37.5283    1.0000 </r>
       <r>  -37.5283    1.0000 </r>
       <r>  -37.5267    1.0000 </r>
       <r>  -37.5261    1.0000 </r>
       <r>  -37.5261    1.0000 </r>
       <r>   -8.9308    1.0000 </r>
       <r>   -7.6885    1.0000 </r>
       <r>   -7.3332    1.0000 </r>
       <r>   -7.3332    1.0000 </r>
       <r>   -0.4376    1.0000 </r>
       <r>   -0.4376    1.0000 </r>
       <r>   -0.2045    1.0000 </r>
       <r>    1.3172    1.0000 </r>
       <r>    1.3172    1.0000 </r>
       <r>    1.5326    1.0000 </r>
       <r>    1.5326    1.0000 </r>
       <r>    2.1180    1.0000 </r>
       <r>    2.1180    1.0000 </r>
       <r>    2.6377    1.0000 </r>
       <r>    3.3340    1.0000 </r>
       <r>    3.3340    1.0000 </r>
       <r>    7.0797    0.0000 </r>
       <r>    7.4780    0.0000 </r>
       <r>    7.4780    0.0000 </r>
       <r>    8.1683    0.0000 </r>
       <r>    8.6140    0.0000 </r>
       <r>    8.9963    0.0000 </r>
       <r>    8.9963    0.0000 </r>
       <r>   10.5169    0.0000 </r>
      </set>
      <set comment="kpoint 3">
       <r>  -37.5307    1.0000 </r>
       <r>  -37.5307    1.0000 </r>
       <r>  -37.5307    1.0000 </r>
       <r>  -37.5307    1.0000 </r>
       <r>  -37.5295    1.0000 </r>
       <r>  -37.5295    1.0000 </r>
       <r>  -37.5287    1.0000 </r>
       <r>  -37.5287    1.0000 </r>
       <r>  -37.5272    1.0000 </r>
       <r>  -37.5272    1.0000 </r>
       <r>  -37.5272    1.0000 </r>
       <r>  -37.5272    1.0000 </r>
       <r>   -8.3644    1.0000 </r>
       <r>   -8.3644    1.0000 </r>
       <r>   -7.3067    1.0000 </r>
       <r>   -7.3067    1.0000 </r>
       <r>    0.2986    1.0000 </r>
       <r>    0.2986    1.0000 </r>
       <r>    0.2986    1.0000 </r>
       <r>    0.2986    1.0000 </r>
       <r>    1.0368    1.0000 </r>
       <r>    1.0368    1.0000 </r>
       <r>    1.2170    1.0000 </r>
       <r>    1.2170    1.0000 </r>
       <r>    2.6589    1.0000 </r>
       <r>    2.6589    1.0000 </r>
       <r>    2.6589    1.0000 </r>
       <r>    2.6589    1.0000 </r>
       <r>    8.7036    0.0000 </r>
       <r>    8.7036    0.0000 </r>
       <r>    8.9806    0.0000 </r>
       <r>    8.9806    0.0000 </r>
       <r>    9.1074    0.0000 </r>
       <r>    9.1074    0.0000 </r>
       <r>   11.5535    0.0000 </r>
       <r>   11.5537    0.0000 </r>
      </set>
      <set comment="kpoint 4">
       <r>  -37.5318    1.0000 </r>
       <r>  -37.5318    1.0000 </r>
       <r>  -37.5316    1.0000 </r>
       <r>  -37.5302    1.0000 </r>
       <r>  -37.5288    1.0000 </r>
       <r>  -37.5288    1.0000 </r>
       <r>  -37.5281    1.0000 </r>
       <r>  -37.5281    1.0000 </r>
       <r>  -37.5281    1.0000 </r>
       <r>  -37.5281    1.0000 </r>
       <r>  -37.5265    1.0000 </r>
       <r>  -37.5258    1.0000 </r>
       <r>   -8.7318    1.0000 </r>
       <r>   -7.6112    1.0000 </r>
       <r>   -7.6112    1.0000 </r>
       <r>   -7.3561    1.0000 </r>
       <r>   -0.2288    1.0000 </r>
       <r>   -0.2288    1.0000 </r>
       <r>   -0.1826    1.0000 </r>
       <r>    0.3548    1.0000 </r>
       <r>    1.5366    1.0000 </r>
       <r>    1.5366    1.0000 </r>
       <r>    1.6683    1.0000 </r>
       <r>    2.0112    1.0000 </r>
       <r>    2.0112    1.0000 </r>
       <r>    2.2497    1.0000 </r>
       <r>    2.9230    1.0000 </r>
       <r>    3.5602    1.0000 </r>
       <r>    7.5280    0.0000 </r>
       <r>    8.0273    0.0000 </r>
       <r>    8.0273    0.0000 </r>
       <r>    9.1092    0.0000 </r>
       <r>    9.2701    0.0000 </r>
       <r>    9.2701    0.0000 </r>
       <r>   10.3112    0.0000 </r>
       <r>   10.7699    0.0000 </r>
      </set>
      <set comment="kpoint 5">
       <r>  -37.5313    1.0000 </r>
       <r>  -37.5313    1.0000 </r>
       <r>  -37.5304    1.0000 </r>
       <r>  -37.5304    1.0000 </r>
       <r>  -37.5302    1.0000 </r>
       <r>  -37.5302    1.0000 </r>
       <r>  -37.5278    1.0000 </r>
       <r>  -37.5278    1.0000 </r>
       <r>  -37.5277    1.0000 </r>
       <r>  -37.5277    1.0000 </r>
       <r>  -37.5267    1.0000 </r>
       <r>  -37.5267    1.0000 </r>
       <r>   -8.2098    1.0000 </r>
       <r>   -8.2098    1.0000 </r>
       <r>   -7.4560    1.0000 </r>
       <r>   -7.4560    1.0000 </r>
       <r>   -0.1798    1.0000 </r>
       <r>   -0.1798    1.0000 </r>
       <r>    0.4982    1.0000 </r>
       <r>    0.4982    1.0000 </r>
       <r>    0.5417    1.0000 </r>
       <r>    0.5417    1.0000 </r>
       <r>    2.1438    1.0000 </r>
       <r>    2.1438    1.0000 </r>
       <r>    2.1528    1.0000 </r>
       <r>    2.1528    1.0000 </r>
       <r>    2.9614    1.0000 </r>
       <r>    2.9614    1.0000 </r>
       <r>    8.9142    0.0000 </r>
       <r>    8.9142    0.0000 </r>
       <r>    9.5086    0.0000 </r>
       <r>    9.5086    0.0000 </r>
       <r>   10.0248    0.0000 </r>
       <r>   10.0248    0.0000 </r>
       <r>   10.7451    0.0000 </r>
       <r>   10.8131    0.0000 </r>
      </set>
      <set comment="kpoint 6">
       <r>  -37.5313    1.0000 </r>
       <r>  -37.5313    1.0000 </r>
       <r>  -37.5313    1.0000 </r>
       <r>  -37.5313    1.0000 </r>
       <r>  -37.5289    1.0000 </r>
       <r>  -37.5289    1.0000 </r>
       <r>  -37.5289    1.0000 </r>
       <r>  -37.5289    1.0000 </r>
       <r>  -37.5267    1.0000 </r>
       <r>  -37.5267    1.0000 </r>
       <r>  -37.5267    1.0000 </r>
       <r>  -37.5267    1.0000 </r>
       <r>   -7.8312    1.0000 </r>
       <r>   -7.8312    1.0000 </r>
       <r>   -7.8312    1.0000 </r>
       <r>   -7.8312    1.0000 </r>
       <r>   -0.1575    1.0000 </r>
       <r>   -0.1575    1.0000 </r>
       <r>   -0.1575    1.0000 </r>
       <r>   -0.1575    1.0000 </r>
       <r>    1.2263    1.0000 </r>
       <r>    1.2263    1.0000 </r>
       <r>    1.2263    1.0000 </r>
       <r>    1.2263    1.0000 </r>
       <r>    3.0074    1.0000 </r>
       <r>    3.0074    1.0000 </r>
       <r>    3.0074    1.0000 </r>
       <r>    3.0074    1.0000 </r>
       <r>    9.2876    0.0000 </r>
       <r>    9.2876    0.0000 </r>
       <r>    9.2876    0.0000 </r>
       <r>    9.2876    0.0000 </r>
       <r>   11.3642    0.0000 </r>
       <r>   11.3741    0.0000 </r>
       <r>   11.3951    0.0000 </r>
       <r>   11.4065    0.0000 </r>
      </set>
      <set comment="kpoint 7">
       <r>  -37.5321    1.0000 </r>
       <r>  -37.5321    1.0000 </r>
       <r>  -37.5321    1.0000 </r>
       <r>  -37.5297    1.0000 </r>
       <r>  -37.5288    1.0000 </r>
       <r>  -37.5288    1.0000 </r>
       <r>  -37.5288    1.0000 </r>
       <r>  -37.5277    1.0000 </r>
       <r>  -37.5277    1.0000 </r>
       <r>  -37.5277    1.0000 </r>
       <r>  -37.5262    1.0000 </r>
       <r>  -37.5262    1.0000 </r>
       <r>   -8.5490    1.0000 </r>
       <r>   -7.5759    1.0000 </r>
       <r>   -7.5759    1.0000 </r>
       <r>   -7.5759    1.0000 </r>
       <r>   -0.5265    1.0000 </r>
       <r>   -0.5265    1.0000 </r>
       <r>   -0.5265    1.0000 </r>
       <r>    0.7703    1.0000 </r>
       <r>    1.3607    1.0000 </r>
       <r>    1.3607    1.0000 </r>
       <r>    1.3607    1.0000 </r>
       <r>    2.4130    1.0000 </r>
       <r>    2.4130    1.0000 </r>
       <r>    2.4130    1.0000 </r>
       <r>    3.3338    1.0000 </r>
       <r>    3.3338    1.0000 </r>
       <r>    8.0269    0.0000 </r>
       <r>    8.0269    0.0000 </r>
       <r>    8.0269    0.0000 </r>
       <r>    8.5898    0.0000 </r>
       <r>   10.3689    0.0000 </r>
       <r>   10.3689    0.0000 </r>
       <r>   10.3689    0.0000 </r>
       <r>   11.4414    0.0000 </r>
      </set>
      <set comment="kpoint 8">
       <r>  -37.5325    1.0000 </r>
       <r>  -37.5325    1.0000 </r>
       <r>  -37.5315    1.0000 </r>
       <r>  -37.5315    1.0000 </r>
       <r>  -37.5288    1.0000 </r>
       <r>  -37.5288    1.0000 </r>
       <r>  -37.5275    1.0000 </r>
       <r>  -37.5275    1.0000 </r>
       <r>  -37.5269    1.0000 </r>
       <r>  -37.5269    1.0000 </r>
       <r>  -37.5269    1.0000 </r>
       <r>  -37.5269    1.0000 </r>
       <r>   -8.0817    1.0000 </r>
       <r>   -8.0817    1.0000 </r>
       <r>   -7.5396    1.0000 </r>
       <r>   -7.5396    1.0000 </r>
       <r>   -0.8017    1.0000 </r>
       <r>   -0.8017    1.0000 </r>
       <r>   -0.2139    1.0000 </r>
       <r>   -0.2139    1.0000 </r>
       <r>    1.4325    1.0000 </r>
       <r>    1.4325    1.0000 </r>
       <r>    2.4654    1.0000 </r>
       <r>    2.4654    1.0000 </r>
       <r>    2.7092    1.0000 </r>
       <r>    2.7092    1.0000 </r>
       <r>    2.8424    1.0000 </r>
       <r>    2.8424    1.0000 </r>
       <r>    8.8896    0.0000 </r>
       <r>    8.8896    0.0000 </r>
       <r>    9.2363    0.0000 </r>
       <r>    9.2363    0.0000 </r>
       <r>    9.7141    0.0000 </r>
       <r>    9.7141    0.0000 </r>
       <r>   10.2686    0.0000 </r>
       <r>   10.2686    0.0000 </r>
      </set>
      <set comment="kpoint 9">
       <r>  -37.5328    1.0000 </r>
       <r>  -37.5328    1.0000 </r>
       <r>  -37.5328    1.0000 </r>
       <r>  -37.5328    1.0000 </r>
       <r>  -37.5276    1.0000 </r>
       <r>  -37.5276    1.0000 </r>
       <r>  -37.5276    1.0000 </r>
       <r>  -37.5276    1.0000 </r>
       <r>  -37.5268    1.0000 </r>
       <r>  -37.5268    1.0000 </r>
       <r>  -37.5268    1.0000 </r>
       <r>  -37.5268    1.0000 </r>
       <r>   -7.7890    1.0000 </r>
       <r>   -7.7890    1.0000 </r>
       <r>   -7.7890    1.0000 </r>
       <r>   -7.7890    1.0000 </r>
       <r>   -0.8990    1.0000 </r>
       <r>   -0.8990    1.0000 </r>
       <r>   -0.8990    1.0000 </r>
       <r>   -0.8990    1.0000 </r>
       <r>    2.2477    1.0000 </r>
       <r>    2.2477    1.0000 </r>
       <r>    2.2477    1.0000 </r>
       <r>    2.2477    1.0000 </r>
       <r>    3.0281    1.0000 </r>
       <r>    3.0281    1.0000 </r>
       <r>    3.0281    1.0000 </r>
       <r>    3.0281    1.0000 </r>
       <r>    8.9354    0.0000 </r>
       <r>    8.9354    0.0000 </r>
       <r>    8.9354    0.0000 </r>
       <r>    8.9354    0.0000 </r>
       <r>   10.1367    0.0000 </r>
       <r>   10.1367    0.0000 </r>
       <r>   10.1367    0.0000 </r>
       <r>   10.1367    0.0000 </r>
      </set>
      <set comment="kpoint 10">
       <r>  -37.5338    1.0000 </r>
       <r>  -37.5338    1.0000 </r>
       <r>  -37.5338    1.0000 </r>
       <r>  -37.5338    1.0000 </r>
       <r>  -37.5269    1.0000 </r>
       <r>  -37.5269    1.0000 </r>
       <r>  -37.5269    1.0000 </r>
       <r>  -37.5269    1.0000 </r>
       <r>  -37.5269    1.0000 </r>
       <r>  -37.5269    1.0000 </r>
       <r>  -37.5269    1.0000 </r>
       <r>  -37.5269    1.0000 </r>
       <r>   -7.7452    1.0000 </r>
       <r>   -7.7452    1.0000 </r>
       <r>   -7.7452    1.0000 </r>
       <r>   -7.7452    1.0000 </r>
       <r>   -1.3425    1.0000 </r>
       <r>   -1.3425    1.0000 </r>
       <r>   -1.3425    1.0000 </r>
       <r>   -1.3425    1.0000 </r>
       <r>    3.0493    1.0000 </r>
       <r>    3.0493    1.0000 </r>
       <r>    3.0493    1.0000 </r>
       <r>    3.0493    1.0000 </r>
       <r>    3.0493    1.0000 </r>
       <r>    3.0493    1.0000 </r>
       <r>    3.0493    1.0000 </r>
       <r>    3.0493    1.0000 </r>
       <r>    8.1111    0.0000 </r>
       <r>    8.1111    0.0000 </r>
       <r>    8.1111    0.0000 </r>
       <r>    8.1111    0.0000 </r>
       <r>   10.5320    0.0000 </r>
       <r>   10.5320    0.0000 </r>
       <r>   10.5320    0.0000 </r>
       <r>   10.5320    0.0000 </r>
      </set>
     </set>
    </set>
   </array>
  </eigenvalues>
  <separator name="orbital magnetization" >
   <v name="MAGDIPOLOUT">      0.00000000      0.00000000      0.00000000</v>
  </separator>
  <dos>
   <i name="efermi">      3.79378346 </i>
   <total>
    <array>
     <dimension dim="1">gridpoints</dimension>
     <dimension dim="2">spin</dimension>
     <field>energy</field>
     <field>total</field>
     <field>integrated</field>
     <set>
      <set comment="spin 1">
       <r>   -39.9882     0.0000     0.0000 </r>
       <r>   -39.8082     0.0000     0.0000 </r>
       <r>   -39.6282     0.0000     0.0000 </r>
       <r>   -39.4482     0.0000     0.0000 </r>
       <r>   -39.2682     0.0000     0.0000 </r>
       <r>   -39.0882     0.0000     0.0000 </r>
       <r>   -38.9083     0.0000     0.0000 </r>
       <r>   -38.7283     0.0000     0.0000 </r>
       <r>   -38.5483     0.0000     0.0000 </r>
       <r>   -38.3683     0.0000     0.0000 </r>
       <r>   -38.1883     0.0000     0.0000 </r>
       <r>   -38.0083     0.0000     0.0000 </r>
       <r>   -37.8283     0.0000     0.0000 </r>
       <r>   -37.6483     0.0000     0.0000 </r>
       <r>   -37.4684   133.3426    24.0000 </r>
       <r>   -37.2884     0.0000    24.0000 </r>
       <r>   -37.1084     0.0000    24.0000 </r>
       <r>   -36.9284     0.0000    24.0000 </r>
       <r>   -36.7484     0.0000    24.0000 </r>
       <r>   -36.5684     0.0000    24.0000 </r>
       <r>   -36.3884     0.0000    24.0000 </r>
       <r>   -36.2084     0.0000    24.0000 </r>
       <r>   -36.0285     0.0000    24.0000 </r>
       <r>   -35.8485     0.0000    24.0000 </r>
       <r>   -35.6685     0.0000    24.0000 </r>
       <r>   -35.4885     0.0000    24.0000 </r>
       <r>   -35.3085     0.0000    24.0000 </r>
       <r>   -35.1285     0.0000    24.0000 </r>
       <r>   -34.9485     0.0000    24.0000 </r>
       <r>   -34.7685     0.0000    24.0000 </r>
       <r>   -34.5886     0.0000    24.0000 </r>
       <r>   -34.4086     0.0000    24.0000 </r>
       <r>   -34.2286     0.0000    24.0000 </r>
       <r>   -34.0486     0.0000    24.0000 </r>
       <r>   -33.8686     0.0000    24.0000 </r>
       <r>   -33.6886     0.0000    24.0000 </r>
       <r>   -33.5086     0.0000    24.0000 </r>
       <r>   -33.3286     0.0000    24.0000 </r>
       <r>   -33.1487     0.0000    24.0000 </r>
       <r>   -32.9687     0.0000    24.0000 </r>
       <r>   -32.7887     0.0000    24.0000 </r>
       <r>   -32.6087     0.0000    24.0000 </r>
       <r>   -32.4287     0.0000    24.0000 </r>
       <r>   -32.2487     0.0000    24.0000 </r>
       <r>   -32.0687     0.0000    24.0000 </r>
       <r>   -31.8887     0.0000    24.0000 </r>
       <r>   -31.7088     0.0000    24.0000 </r>
       <r>   -31.5288     0.0000    24.0000 </r>
       <r>   -31.3488     0.0000    24.0000 </r>
       <r>   -31.1688     0.0000    24.0000 </r>
       <r>   -30.9888     0.0000    24.0000 </r>
       <r>   -30.8088     0.0000    24.0000 </r>
       <r>   -30.6288     0.0000    24.0000 </r>
       <r>   -30.4488     0.0000    24.0000 </r>
       <r>   -30.2689     0.0000    24.0000 </r>
       <r>   -30.0889     0.0000    24.0000 </r>
       <r>   -29.9089     0.0000    24.0000 </r>
       <r>   -29.7289     0.0000    24.0000 </r>
       <r>   -29.5489     0.0000    24.0000 </r>
       <r>   -29.3689     0.0000    24.0000 </r>
       <r>   -29.1889     0.0000    24.0000 </r>
       <r>   -29.0089     0.0000    24.0000 </r>
       <r>   -28.8290     0.0000    24.0000 </r>
       <r>   -28.6490     0.0000    24.0000 </r>
       <r>   -28.4690     0.0000    24.0000 </r>
       <r>   -28.2890     0.0000    24.0000 </r>
       <r>   -28.1090     0.0000    24.0000 </r>
       <r>   -27.9290     0.0000    24.0000 </r>
       <r>   -27.7490     0.0000    24.0000 </r>
       <r>   -27.5690     0.0000    24.0000 </r>
       <r>   -27.3891     0.0000    24.0000 </r>
       <r>   -27.2091     0.0000    24.0000 </r>
       <r>   -27.0291     0.0000    24.0000 </r>
       <r>   -26.8491     0.0000    24.0000 </r>
       <r>   -26.6691     0.0000    24.0000 </r>
       <r>   -26.4891     0.0000    24.0000 </r>
       <r>   -26.3091     0.0000    24.0000 </r>
       <r>   -26.1291     0.0000    24.0000 </r>
       <r>   -25.9492     0.0000    24.0000 </r>
       <r>   -25.7692     0.0000    24.0000 </r>
       <r>   -25.5892     0.0000    24.0000 </r>
       <r>   -25.4092     0.0000    24.0000 </r>
       <r>   -25.2292     0.0000    24.0000 </r>
       <r>   -25.0492     0.0000    24.0000 </r>
       <r>   -24.8692     0.0000    24.0000 </r>
       <r>   -24.6892     0.0000    24.0000 </r>
       <r>   -24.5093     0.0000    24.0000 </r>
       <r>   -24.3293     0.0000    24.0000 </r>
       <r>   -24.1493     0.0000    24.0000 </r>
       <r>   -23.9693     0.0000    24.0000 </r>
       <r>   -23.7893     0.0000    24.0000 </r>
       <r>   -23.6093     0.0000    24.0000 </r>
       <r>   -23.4293     0.0000    24.0000 </r>
       <r>   -23.2493     0.0000    24.0000 </r>
       <r>   -23.0694     0.0000    24.0000 </r>
       <r>   -22.8894     0.0000    24.0000 </r>
       <r>   -22.7094     0.0000    24.0000 </r>
       <r>   -22.5294     0.0000    24.0000 </r>
       <r>   -22.3494     0.0000    24.0000 </r>
       <r>   -22.1694     0.0000    24.0000 </r>
       <r>   -21.9894     0.0000    24.0000 </r>
       <r>   -21.8094     0.0000    24.0000 </r>
       <r>   -21.6295     0.0000    24.0000 </r>
       <r>   -21.4495     0.0000    24.0000 </r>
       <r>   -21.2695     0.0000    24.0000 </r>
       <r>   -21.0895     0.0000    24.0000 </r>
       <r>   -20.9095     0.0000    24.0000 </r>
       <r>   -20.7295     0.0000    24.0000 </r>
       <r>   -20.5495     0.0000    24.0000 </r>
       <r>   -20.3695     0.0000    24.0000 </r>
       <r>   -20.1896     0.0000    24.0000 </r>
       <r>   -20.0096     0.0000    24.0000 </r>
       <r>   -19.8296     0.0000    24.0000 </r>
       <r>   -19.6496     0.0000    24.0000 </r>
       <r>   -19.4696     0.0000    24.0000 </r>
       <r>   -19.2896     0.0000    24.0000 </r>
       <r>   -19.1096     0.0000    24.0000 </r>
       <r>   -18.9296     0.0000    24.0000 </r>
       <r>   -18.7497     0.0000    24.0000 </r>
       <r>   -18.5697     0.0000    24.0000 </r>
       <r>   -18.3897     0.0000    24.0000 </r>
       <r>   -18.2097     0.0000    24.0000 </r>
       <r>   -18.0297     0.0000    24.0000 </r>
       <r>   -17.8497     0.0000    24.0000 </r>
       <r>   -17.6697     0.0000    24.0000 </r>
       <r>   -17.4897     0.0000    24.0000 </r>
       <r>   -17.3098     0.0000    24.0000 </r>
       <r>   -17.1298     0.0000    24.0000 </r>
       <r>   -16.9498     0.0000    24.0000 </r>
       <r>   -16.7698     0.0000    24.0000 </r>
       <r>   -16.5898     0.0000    24.0000 </r>
       <r>   -16.4098     0.0000    24.0000 </r>
       <r>   -16.2298     0.0000    24.0000 </r>
       <r>   -16.0498     0.0000    24.0000 </r>
       <r>   -15.8699     0.0000    24.0000 </r>
       <r>   -15.6899     0.0000    24.0000 </r>
       <r>   -15.5099     0.0000    24.0000 </r>
       <r>   -15.3299     0.0000    24.0000 </r>
       <r>   -15.1499     0.0000    24.0000 </r>
       <r>   -14.9699     0.0000    24.0000 </r>
       <r>   -14.7899     0.0000    24.0000 </r>
       <r>   -14.6099     0.0000    24.0000 </r>
       <r>   -14.4300     0.0000    24.0000 </r>
       <r>   -14.2500     0.0000    24.0000 </r>
       <r>   -14.0700     0.0000    24.0000 </r>
       <r>   -13.8900     0.0000    24.0000 </r>
       <r>   -13.7100     0.0000    24.0000 </r>
       <r>   -13.5300     0.0000    24.0000 </r>
       <r>   -13.3500     0.0000    24.0000 </r>
       <r>   -13.1700     0.0000    24.0000 </r>
       <r>   -12.9901     0.0000    24.0000 </r>
       <r>   -12.8101     0.0000    24.0000 </r>
       <r>   -12.6301     0.0000    24.0000 </r>
       <r>   -12.4501     0.0000    24.0000 </r>
       <r>   -12.2701     0.0000    24.0000 </r>
       <r>   -12.0901     0.0000    24.0000 </r>
       <r>   -11.9101     0.0000    24.0000 </r>
       <r>   -11.7301     0.0000    24.0000 </r>
       <r>   -11.5502     0.0000    24.0000 </r>
       <r>   -11.3702     0.0000    24.0000 </r>
       <r>   -11.1902     0.0000    24.0000 </r>
       <r>   -11.0102     0.0000    24.0000 </r>
       <r>   -10.8302     0.0000    24.0000 </r>
       <r>   -10.6502     0.0000    24.0000 </r>
       <r>   -10.4702     0.0000    24.0000 </r>
       <r>   -10.2902     0.0000    24.0000 </r>
       <r>   -10.1103     0.0000    24.0000 </r>
       <r>    -9.9303     0.0000    24.0000 </r>
       <r>    -9.7503     0.0000    24.0000 </r>
       <r>    -9.5703     0.0000    24.0000 </r>
       <r>    -9.3903     0.0000    24.0000 </r>
       <r>    -9.2103     0.0000    24.0000 </r>
       <r>    -9.0303     0.0000    24.0312 </r>
       <r>    -8.8503     0.0000    24.2188 </r>
       <r>    -8.6704     2.0835    24.5938 </r>
       <r>    -8.4904     1.3890    24.8438 </r>
       <r>    -8.3104     1.0417    25.0312 </r>
       <r>    -8.1304     4.1670    25.7813 </r>
       <r>    -7.9504     0.0000    26.5312 </r>
       <r>    -7.7704     6.2325    27.6530 </r>
       <r>    -7.5904     4.2430    28.7324 </r>
       <r>    -7.4104     4.1670    30.9687 </r>
       <r>    -7.2305     1.0417    32.0000 </r>
       <r>    -7.0505     0.0000    32.0000 </r>
       <r>    -6.8705     0.0000    32.0000 </r>
       <r>    -6.6905     0.0000    32.0000 </r>
       <r>    -6.5105     0.0000    32.0000 </r>
       <r>    -6.3305     0.0000    32.0000 </r>
       <r>    -6.1505     0.0000    32.0000 </r>
       <r>    -5.9705     0.0000    32.0000 </r>
       <r>    -5.7906     0.0000    32.0000 </r>
       <r>    -5.6106     0.0000    32.0000 </r>
       <r>    -5.4306     0.0000    32.0000 </r>
       <r>    -5.2506     0.0000    32.0000 </r>
       <r>    -5.0706     0.0000    32.0000 </r>
       <r>    -4.8906     0.0000    32.0000 </r>
       <r>    -4.7106     0.0000    32.0000 </r>
       <r>    -4.5306     0.0000    32.0000 </r>
       <r>    -4.3507     0.0000    32.0000 </r>
       <r>    -4.1707     0.0000    32.0000 </r>
       <r>    -3.9907     0.0000    32.0000 </r>
       <r>    -3.8107     0.0000    32.0000 </r>
       <r>    -3.6307     0.0000    32.0000 </r>
       <r>    -3.4507     0.0000    32.0000 </r>
       <r>    -3.2707     0.0000    32.0000 </r>
       <r>    -3.0907     0.0000    32.0000 </r>
       <r>    -2.9108     0.0000    32.0000 </r>
       <r>    -2.7308     0.0000    32.0000 </r>
       <r>    -2.5508     0.0000    32.0000 </r>
       <r>    -2.3708     0.0000    32.0000 </r>
       <r>    -2.1908     0.0000    32.0000 </r>
       <r>    -2.0108     0.0000    32.0000 </r>
       <r>    -1.8308     0.0000    32.0000 </r>
       <r>    -1.6508     0.0000    32.0000 </r>
       <r>    -1.4709     0.0000    32.0000 </r>
       <r>    -1.2909     0.6945    32.1250 </r>
       <r>    -1.1109     0.0000    32.1250 </r>
       <r>    -0.9309     0.0000    32.1250 </r>
       <r>    -0.7509     4.1670    33.6250 </r>
       <r>    -0.5709     0.0000    33.7188 </r>
       <r>    -0.3909     2.0835    34.8437 </r>
       <r>    -0.2109     7.0946    36.1207 </r>
       <r>    -0.0310     0.0000    38.0312 </r>
       <r>     0.1490     0.0000    38.0312 </r>
       <r>     0.3290     2.0837    38.4063 </r>
       <r>     0.5090     3.9023    39.4836 </r>
       <r>     0.6890     0.0000    40.2812 </r>
       <r>     0.8690     0.0000    40.5312 </r>
       <r>     1.0490     0.9970    40.7107 </r>
       <r>     1.2290     2.3406    41.1400 </r>
       <r>     1.4089     4.1688    42.4066 </r>
       <r>     1.5889     6.2504    44.2812 </r>
       <r>     1.7689     0.0000    44.6562 </r>
       <r>     1.9489     1.0417    44.8437 </r>
       <r>     2.1289     2.0300    45.9591 </r>
       <r>     2.3089     6.2504    48.5938 </r>
       <r>     2.4889     8.3320    50.0934 </r>
       <r>     2.6689     2.9587    50.6263 </r>
       <r>     2.8488     3.4150    52.0209 </r>
       <r>     3.0288     8.4990    54.0610 </r>
       <r>     3.2088     0.0000    54.6562 </r>
       <r>     3.3888     4.8614    55.5312 </r>
       <r>     3.5688     1.8496    55.8642 </r>
       <r>     3.7488     0.5209    56.0000 </r>
       <r>     3.9288     0.0000    56.0000 </r>
       <r>     4.1088     0.0000    56.0000 </r>
       <r>     4.2887     0.0000    56.0000 </r>
       <r>     4.4687     0.0000    56.0000 </r>
       <r>     4.6487     0.0000    56.0000 </r>
       <r>     4.8287     0.0000    56.0000 </r>
       <r>     5.0087     0.0000    56.0000 </r>
       <r>     5.1887     0.0000    56.0000 </r>
       <r>     5.3687     0.0000    56.0000 </r>
       <r>     5.5487     0.0000    56.0000 </r>
       <r>     5.7286     0.0000    56.0000 </r>
       <r>     5.9086     0.0000    56.0000 </r>
       <r>     6.0886     0.0000    56.0000 </r>
       <r>     6.2686     0.0000    56.0000 </r>
       <r>     6.4486     0.5146    56.0926 </r>
       <r>     6.6286     0.0000    56.0938 </r>
       <r>     6.8086     0.0000    56.0938 </r>
       <r>     6.9886     0.0000    56.0938 </r>
       <r>     7.1685     0.0000    56.2812 </r>
       <r>     7.3485     0.0000    56.2812 </r>
       <r>     7.5285     3.3575    56.8855 </r>
       <r>     7.7085     0.0000    57.0625 </r>
       <r>     7.8885     0.5209    57.1562 </r>
       <r>     8.0685     8.3339    58.6562 </r>
       <r>     8.2485     0.0000    58.9688 </r>
       <r>     8.4285     0.0000    58.9688 </r>
       <r>     8.6084     1.6082    59.2582 </r>
       <r>     8.7884     0.0000    59.5938 </r>
       <r>     8.9684    12.5454    61.8518 </r>
       <r>     9.1484     3.1252    62.9687 </r>
       <r>     9.3284     6.2504    64.8437 </r>
       <r>     9.5084     2.0227    65.2078 </r>
       <r>     9.6884     0.0006    65.5939 </r>
       <r>     9.8684     0.0000    66.3438 </r>
       <r>    10.0483     4.1652    67.0934 </r>
       <r>    10.2283     0.0000    67.8438 </r>
       <r>    10.4083     4.1670    69.7187 </r>
       <r>    10.5883     1.7362    70.0312 </r>
       <r>    10.7683     2.9339    70.5593 </r>
       <r>    10.9483     0.0000    71.1562 </r>
       <r>    11.1283     0.0000    71.1562 </r>
       <r>    11.3083     0.0000    71.1562 </r>
       <r>    11.4882     1.3890    71.7813 </r>
       <r>    11.6682     0.0000    72.0000 </r>
       <r>    11.8482     0.0000    72.0000 </r>
       <r>    12.0282     0.0000    72.0000 </r>
       <r>    12.2082     0.0000    72.0000 </r>
       <r>    12.3882     0.0000    72.0000 </r>
       <r>    12.5682     0.0000    72.0000 </r>
       <r>    12.7482     0.0000    72.0000 </r>
       <r>    12.9281     0.0000    72.0000 </r>
       <r>    13.1081     0.0000    72.0000 </r>
       <r>    13.2881     0.0000    72.0000 </r>
       <r>    13.4681     0.0000    72.0000 </r>
       <r>    13.6481     0.0000    72.0000 </r>
       <r>    13.8281     0.0000    72.0000 </r>
       <r>    14.0081     0.0000    72.0000 </r>
      </set>
     </set>
    </array>
   </total>
  </dos>
 </calculation>
 <structure name="finalpos" >
  <crystal>
   <varray name="basis" >
    <v>       5.16364503       0.00000000       0.00000000 </v>
    <v>       0.00000000       5.16364503       0.00000000 </v>
    <v>       0.00000000       0.00000000       5.16364503 </v>
   </varray>
   <i name="volume">    137.67945523 </i>
   <varray name="rec_basis" >
    <v>       0.19366165       0.00000000       0.00000000 </v>
    <v>       0.00000000       0.19366165       0.00000000 </v>
    <v>       0.00000000       0.00000000       0.19366165 </v>
   </varray>
  </crystal>
  <varray name="positions" >
   <v>       0.00000000       0.00000000       0.00000000 </v>
   <v>       0.00000000       0.50000000       0.50000000 </v>
   <v>       0.50000000       0.00000000       0.50000000 </v>
   <v>       0.50000000       0.50000000       0.00000000 </v>
   <v>       0.50000000       0.00000000       0.00000000 </v>
   <v>       0.50000000       0.50000000       0.50000000 </v>
   <v>       0.00000000       0.00000000       0.50000000 </v>
   <v>       0.00000000       0.50000000       0.00000000 </v>
  </varray>
 </structure>
</modeling>
