natom:  120
displacements:
- atom:    1
  displacement:
    [   0.0099997667646205,  0.0000000000000000,  0.0000682982663890 ]
- atom:    1
  displacement:
    [  -0.0099997667646205,  0.0000000000000000, -0.0000682982663890 ]
- atom:    1
  displacement:
    [   0.0000000000000000,  0.0100000000000000,  0.0000000000000000 ]
- atom:    1
  displacement:
    [   0.0000000000000000, -0.0100000000000000,  0.0000000000000000 ]
- atom:    1
  displacement:
    [  -0.0028450308385456,  0.0000000000000000,  0.0095867512499138 ]
- atom:    1
  displacement:
    [   0.0028450308385456,  0.0000000000000000, -0.0095867512499138 ]
- atom:   49
  displacement:
    [   0.0099997667646205,  0.0000000000000000,  0.0000682982663890 ]
- atom:   49
  displacement:
    [  -0.0099997667646205,  0.0000000000000000, -0.0000682982663890 ]
- atom:   49
  displacement:
    [   0.0000000000000000,  0.0100000000000000,  0.0000000000000000 ]
- atom:   49
  displacement:
    [  -0.0028450308385456,  0.0000000000000000,  0.0095867512499138 ]
- atom:   49
  displacement:
    [   0.0028450308385456,  0.0000000000000000, -0.0095867512499138 ]
- atom:   73
  displacement:
    [   0.0099997667646205,  0.0000000000000000,  0.0000682982663890 ]
- atom:   73
  displacement:
    [  -0.0099997667646205,  0.0000000000000000, -0.0000682982663890 ]
- atom:   73
  displacement:
    [   0.0000000000000000,  0.0100000000000000,  0.0000000000000000 ]
- atom:   73
  displacement:
    [  -0.0028450308385456,  0.0000000000000000,  0.0095867512499138 ]
- atom:   73
  displacement:
    [   0.0028450308385456,  0.0000000000000000, -0.0095867512499138 ]
- atom:   97
  displacement:
    [   0.0099997667646205,  0.0000000000000000,  0.0000682982663890 ]
- atom:   97
  displacement:
    [  -0.0099997667646205,  0.0000000000000000, -0.0000682982663890 ]
- atom:   97
  displacement:
    [   0.0000000000000000,  0.0100000000000000,  0.0000000000000000 ]
- atom:   97
  displacement:
    [  -0.0028450308385456,  0.0000000000000000,  0.0095867512499138 ]
- atom:   97
  displacement:
    [   0.0028450308385456,  0.0000000000000000, -0.0095867512499138 ]
lattice:
- [    13.6198611300000003,     0.0000000000000000,     0.0930234600000000 ] # a
- [     0.0000000000000000,    11.9533492599999995,     0.0000000000000000 ] # b
- [    -4.0201188999999999,     0.0000000000000000,    13.5463838800000005 ] # c
atoms:
- symbol: O  # 1
  position: [  0.0588685766666667,  0.2435981550000000,  0.1626800500000000 ]
  mass: 15.999400
- symbol: O  # 2
  position: [  0.3922019100000000,  0.2435981550000000,  0.1626800500000000 ]
  mass: 15.999400
- symbol: O  # 3
  position: [  0.7255352433333333,  0.2435981550000000,  0.1626800500000000 ]
  mass: 15.999400
- symbol: O  # 4
  position: [  0.0588685766666667,  0.7435981550000000,  0.1626800500000000 ]
  mass: 15.999400
- symbol: O  # 5
  position: [  0.3922019100000000,  0.7435981550000000,  0.1626800500000000 ]
  mass: 15.999400
- symbol: O  # 6
  position: [  0.7255352433333333,  0.7435981550000000,  0.1626800500000000 ]
  mass: 15.999400
- symbol: O  # 7
  position: [  0.0588685766666667,  0.2435981550000000,  0.6626800500000000 ]
  mass: 15.999400
- symbol: O  # 8
  position: [  0.3922019100000000,  0.2435981550000000,  0.6626800500000000 ]
  mass: 15.999400
- symbol: O  # 9
  position: [  0.7255352433333333,  0.2435981550000000,  0.6626800500000000 ]
  mass: 15.999400
- symbol: O  # 10
  position: [  0.0588685766666667,  0.7435981550000000,  0.6626800500000000 ]
  mass: 15.999400
- symbol: O  # 11
  position: [  0.3922019100000000,  0.7435981550000000,  0.6626800500000000 ]
  mass: 15.999400
- symbol: O  # 12
  position: [  0.7255352433333333,  0.7435981550000000,  0.6626800500000000 ]
  mass: 15.999400
- symbol: O  # 13
  position: [  0.2744647566666666,  0.4935981550000000,  0.3373199500000000 ]
  mass: 15.999400
- symbol: O  # 14
  position: [  0.6077980900000001,  0.4935981550000000,  0.3373199500000000 ]
  mass: 15.999400
- symbol: O  # 15
  position: [  0.9411314233333333,  0.4935981550000000,  0.3373199500000000 ]
  mass: 15.999400
- symbol: O  # 16
  position: [  0.2744647566666666,  0.9935981549999999,  0.3373199500000000 ]
  mass: 15.999400
- symbol: O  # 17
  position: [  0.6077980900000001,  0.9935981549999999,  0.3373199500000000 ]
  mass: 15.999400
- symbol: O  # 18
  position: [  0.9411314233333333,  0.9935981549999999,  0.3373199500000000 ]
  mass: 15.999400
- symbol: O  # 19
  position: [  0.2744647566666666,  0.4935981550000000,  0.8373199499999999 ]
  mass: 15.999400
- symbol: O  # 20
  position: [  0.6077980900000001,  0.4935981550000000,  0.8373199499999999 ]
  mass: 15.999400
- symbol: O  # 21
  position: [  0.9411314233333333,  0.4935981550000000,  0.8373199499999999 ]
  mass: 15.999400
- symbol: O  # 22
  position: [  0.2744647566666666,  0.9935981549999999,  0.8373199499999999 ]
  mass: 15.999400
- symbol: O  # 23
  position: [  0.6077980900000001,  0.9935981549999999,  0.8373199499999999 ]
  mass: 15.999400
- symbol: O  # 24
  position: [  0.9411314233333333,  0.9935981549999999,  0.8373199499999999 ]
  mass: 15.999400
- symbol: O  # 25
  position: [  0.2744647566666666,  0.2564018450000000,  0.3373199500000000 ]
  mass: 15.999400
- symbol: O  # 26
  position: [  0.6077980900000001,  0.2564018450000000,  0.3373199500000000 ]
  mass: 15.999400
- symbol: O  # 27
  position: [  0.9411314233333333,  0.2564018450000000,  0.3373199500000000 ]
  mass: 15.999400
- symbol: O  # 28
  position: [  0.2744647566666666,  0.7564018450000001,  0.3373199500000000 ]
  mass: 15.999400
- symbol: O  # 29
  position: [  0.6077980900000001,  0.7564018450000001,  0.3373199500000000 ]
  mass: 15.999400
- symbol: O  # 30
  position: [  0.9411314233333333,  0.7564018450000001,  0.3373199500000000 ]
  mass: 15.999400
- symbol: O  # 31
  position: [  0.2744647566666666,  0.2564018450000000,  0.8373199499999999 ]
  mass: 15.999400
- symbol: O  # 32
  position: [  0.6077980900000001,  0.2564018450000000,  0.8373199499999999 ]
  mass: 15.999400
- symbol: O  # 33
  position: [  0.9411314233333333,  0.2564018450000000,  0.8373199499999999 ]
  mass: 15.999400
- symbol: O  # 34
  position: [  0.2744647566666666,  0.7564018450000001,  0.8373199499999999 ]
  mass: 15.999400
- symbol: O  # 35
  position: [  0.6077980900000001,  0.7564018450000001,  0.8373199499999999 ]
  mass: 15.999400
- symbol: O  # 36
  position: [  0.9411314233333333,  0.7564018450000001,  0.8373199499999999 ]
  mass: 15.999400
- symbol: O  # 37
  position: [  0.0588685766666667,  0.0064018450000000,  0.1626800500000000 ]
  mass: 15.999400
- symbol: O  # 38
  position: [  0.3922019100000000,  0.0064018450000000,  0.1626800500000000 ]
  mass: 15.999400
- symbol: O  # 39
  position: [  0.7255352433333333,  0.0064018450000000,  0.1626800500000000 ]
  mass: 15.999400
- symbol: O  # 40
  position: [  0.0588685766666667,  0.5064018450000000,  0.1626800500000000 ]
  mass: 15.999400
- symbol: O  # 41
  position: [  0.3922019100000000,  0.5064018450000000,  0.1626800500000000 ]
  mass: 15.999400
- symbol: O  # 42
  position: [  0.7255352433333333,  0.5064018450000000,  0.1626800500000000 ]
  mass: 15.999400
- symbol: O  # 43
  position: [  0.0588685766666667,  0.0064018450000000,  0.6626800500000000 ]
  mass: 15.999400
- symbol: O  # 44
  position: [  0.3922019100000000,  0.0064018450000000,  0.6626800500000000 ]
  mass: 15.999400
- symbol: O  # 45
  position: [  0.7255352433333333,  0.0064018450000000,  0.6626800500000000 ]
  mass: 15.999400
- symbol: O  # 46
  position: [  0.0588685766666667,  0.5064018450000000,  0.6626800500000000 ]
  mass: 15.999400
- symbol: O  # 47
  position: [  0.3922019100000000,  0.5064018450000000,  0.6626800500000000 ]
  mass: 15.999400
- symbol: O  # 48
  position: [  0.7255352433333333,  0.5064018450000000,  0.6626800500000000 ]
  mass: 15.999400
- symbol: O  # 49
  position: [  0.2137684100000000,  0.1250000000000000,  0.0529390600000000 ]
  mass: 15.999400
- symbol: O  # 50
  position: [  0.5471017433333333,  0.1250000000000000,  0.0529390600000000 ]
  mass: 15.999400
- symbol: O  # 51
  position: [  0.8804350766666666,  0.1250000000000000,  0.0529390600000000 ]
  mass: 15.999400
- symbol: O  # 52
  position: [  0.2137684100000000,  0.6250000000000000,  0.0529390600000000 ]
  mass: 15.999400
- symbol: O  # 53
  position: [  0.5471017433333333,  0.6250000000000000,  0.0529390600000000 ]
  mass: 15.999400
- symbol: O  # 54
  position: [  0.8804350766666666,  0.6250000000000000,  0.0529390600000000 ]
  mass: 15.999400
- symbol: O  # 55
  position: [  0.2137684100000000,  0.1250000000000000,  0.5529390600000000 ]
  mass: 15.999400
- symbol: O  # 56
  position: [  0.5471017433333333,  0.1250000000000000,  0.5529390600000000 ]
  mass: 15.999400
- symbol: O  # 57
  position: [  0.8804350766666666,  0.1250000000000000,  0.5529390600000000 ]
  mass: 15.999400
- symbol: O  # 58
  position: [  0.2137684100000000,  0.6250000000000000,  0.5529390600000000 ]
  mass: 15.999400
- symbol: O  # 59
  position: [  0.5471017433333333,  0.6250000000000000,  0.5529390600000000 ]
  mass: 15.999400
- symbol: O  # 60
  position: [  0.8804350766666666,  0.6250000000000000,  0.5529390600000000 ]
  mass: 15.999400
- symbol: O  # 61
  position: [  0.1195649233333333,  0.3750000000000000,  0.4470609400000000 ]
  mass: 15.999400
- symbol: O  # 62
  position: [  0.4528982566666667,  0.3750000000000000,  0.4470609400000000 ]
  mass: 15.999400
- symbol: O  # 63
  position: [  0.7862315900000000,  0.3750000000000000,  0.4470609400000000 ]
  mass: 15.999400
- symbol: O  # 64
  position: [  0.1195649233333333,  0.8750000000000000,  0.4470609400000000 ]
  mass: 15.999400
- symbol: O  # 65
  position: [  0.4528982566666667,  0.8750000000000000,  0.4470609400000000 ]
  mass: 15.999400
- symbol: O  # 66
  position: [  0.7862315900000000,  0.8750000000000000,  0.4470609400000000 ]
  mass: 15.999400
- symbol: O  # 67
  position: [  0.1195649233333333,  0.3750000000000000,  0.9470609400000001 ]
  mass: 15.999400
- symbol: O  # 68
  position: [  0.4528982566666667,  0.3750000000000000,  0.9470609400000001 ]
  mass: 15.999400
- symbol: O  # 69
  position: [  0.7862315900000000,  0.3750000000000000,  0.9470609400000001 ]
  mass: 15.999400
- symbol: O  # 70
  position: [  0.1195649233333333,  0.8750000000000000,  0.9470609400000001 ]
  mass: 15.999400
- symbol: O  # 71
  position: [  0.4528982566666667,  0.8750000000000000,  0.9470609400000001 ]
  mass: 15.999400
- symbol: O  # 72
  position: [  0.7862315900000000,  0.8750000000000000,  0.9470609400000001 ]
  mass: 15.999400
- symbol: Te # 73
  position: [  0.3093948833333334,  0.3750000000000000,  0.4283574600000000 ]
  mass: 127.600000
- symbol: Te # 74
  position: [  0.6427282166666667,  0.3750000000000000,  0.4283574600000000 ]
  mass: 127.600000
- symbol: Te # 75
  position: [  0.9760615499999999,  0.3750000000000000,  0.4283574600000000 ]
  mass: 127.600000
- symbol: Te # 76
  position: [  0.3093948833333334,  0.8750000000000000,  0.4283574600000000 ]
  mass: 127.600000
- symbol: Te # 77
  position: [  0.6427282166666667,  0.8750000000000000,  0.4283574600000000 ]
  mass: 127.600000
- symbol: Te # 78
  position: [  0.9760615499999999,  0.8750000000000000,  0.4283574600000000 ]
  mass: 127.600000
- symbol: Te # 79
  position: [  0.3093948833333334,  0.3750000000000000,  0.9283574600000000 ]
  mass: 127.600000
- symbol: Te # 80
  position: [  0.6427282166666667,  0.3750000000000000,  0.9283574600000000 ]
  mass: 127.600000
- symbol: Te # 81
  position: [  0.9760615499999999,  0.3750000000000000,  0.9283574600000000 ]
  mass: 127.600000
- symbol: Te # 82
  position: [  0.3093948833333334,  0.8750000000000000,  0.9283574600000000 ]
  mass: 127.600000
- symbol: Te # 83
  position: [  0.6427282166666667,  0.8750000000000000,  0.9283574600000000 ]
  mass: 127.600000
- symbol: Te # 84
  position: [  0.9760615499999999,  0.8750000000000000,  0.9283574600000000 ]
  mass: 127.600000
- symbol: Te # 85
  position: [  0.0239384500000000,  0.1250000000000000,  0.0716425400000000 ]
  mass: 127.600000
- symbol: Te # 86
  position: [  0.3572717833333334,  0.1250000000000000,  0.0716425400000000 ]
  mass: 127.600000
- symbol: Te # 87
  position: [  0.6906051166666667,  0.1250000000000000,  0.0716425400000000 ]
  mass: 127.600000
- symbol: Te # 88
  position: [  0.0239384500000000,  0.6250000000000000,  0.0716425400000000 ]
  mass: 127.600000
- symbol: Te # 89
  position: [  0.3572717833333334,  0.6250000000000000,  0.0716425400000000 ]
  mass: 127.600000
- symbol: Te # 90
  position: [  0.6906051166666667,  0.6250000000000000,  0.0716425400000000 ]
  mass: 127.600000
- symbol: Te # 91
  position: [  0.0239384500000000,  0.1250000000000000,  0.5716425400000000 ]
  mass: 127.600000
- symbol: Te # 92
  position: [  0.3572717833333334,  0.1250000000000000,  0.5716425400000000 ]
  mass: 127.600000
- symbol: Te # 93
  position: [  0.6906051166666667,  0.1250000000000000,  0.5716425400000000 ]
  mass: 127.600000
- symbol: Te # 94
  position: [  0.0239384500000000,  0.6250000000000000,  0.5716425400000000 ]
  mass: 127.600000
- symbol: Te # 95
  position: [  0.3572717833333334,  0.6250000000000000,  0.5716425400000000 ]
  mass: 127.600000
- symbol: Te # 96
  position: [  0.6906051166666667,  0.6250000000000000,  0.5716425400000000 ]
  mass: 127.600000
- symbol: Ba # 97
  position: [  0.2212498166666667,  0.3750000000000000,  0.1570125000000000 ]
  mass: 137.327000
- symbol: Ba # 98
  position: [  0.5545831500000000,  0.3750000000000000,  0.1570125000000000 ]
  mass: 137.327000
- symbol: Ba # 99
  position: [  0.8879164833333334,  0.3750000000000000,  0.1570125000000000 ]
  mass: 137.327000
- symbol: Ba # 100
  position: [  0.2212498166666667,  0.8750000000000000,  0.1570125000000000 ]
  mass: 137.327000
- symbol: Ba # 101
  position: [  0.5545831500000000,  0.8750000000000000,  0.1570125000000000 ]
  mass: 137.327000
- symbol: Ba # 102
  position: [  0.8879164833333334,  0.8750000000000000,  0.1570125000000000 ]
  mass: 137.327000
- symbol: Ba # 103
  position: [  0.2212498166666667,  0.3750000000000000,  0.6570125000000000 ]
  mass: 137.327000
- symbol: Ba # 104
  position: [  0.5545831500000000,  0.3750000000000000,  0.6570125000000000 ]
  mass: 137.327000
- symbol: Ba # 105
  position: [  0.8879164833333334,  0.3750000000000000,  0.6570125000000000 ]
  mass: 137.327000
- symbol: Ba # 106
  position: [  0.2212498166666667,  0.8750000000000000,  0.6570125000000000 ]
  mass: 137.327000
- symbol: Ba # 107
  position: [  0.5545831500000000,  0.8750000000000000,  0.6570125000000000 ]
  mass: 137.327000
- symbol: Ba # 108
  position: [  0.8879164833333334,  0.8750000000000000,  0.6570125000000000 ]
  mass: 137.327000
- symbol: Ba # 109
  position: [  0.1120835166666667,  0.1250000000000000,  0.3429875000000000 ]
  mass: 137.327000
- symbol: Ba # 110
  position: [  0.4454168500000000,  0.1250000000000000,  0.3429875000000000 ]
  mass: 137.327000
- symbol: Ba # 111
  position: [  0.7787501833333333,  0.1250000000000000,  0.3429875000000000 ]
  mass: 137.327000
- symbol: Ba # 112
  position: [  0.1120835166666667,  0.6250000000000000,  0.3429875000000000 ]
  mass: 137.327000
- symbol: Ba # 113
  position: [  0.4454168500000000,  0.6250000000000000,  0.3429875000000000 ]
  mass: 137.327000
- symbol: Ba # 114
  position: [  0.7787501833333333,  0.6250000000000000,  0.3429875000000000 ]
  mass: 137.327000
- symbol: Ba # 115
  position: [  0.1120835166666667,  0.1250000000000000,  0.8429875000000000 ]
  mass: 137.327000
- symbol: Ba # 116
  position: [  0.4454168500000000,  0.1250000000000000,  0.8429875000000000 ]
  mass: 137.327000
- symbol: Ba # 117
  position: [  0.7787501833333333,  0.1250000000000000,  0.8429875000000000 ]
  mass: 137.327000
- symbol: Ba # 118
  position: [  0.1120835166666667,  0.6250000000000000,  0.8429875000000000 ]
  mass: 137.327000
- symbol: Ba # 119
  position: [  0.4454168500000000,  0.6250000000000000,  0.8429875000000000 ]
  mass: 137.327000
- symbol: Ba # 120
  position: [  0.7787501833333333,  0.6250000000000000,  0.8429875000000000 ]
  mass: 137.327000