64   
2    

1    
  0.0100000000000000   0.0000000000000000   0.0000000000000000
  -0.0503774500    0.0000000000    0.0000000000
   0.0107911900    0.0000000000    0.0000000000
   0.0012812200    0.0000000000    0.0000000000
  -0.0006846700    0.0000000000    0.0000000000
   0.0012812200    0.0000000000    0.0000000000
  -0.0006846700    0.0000000000    0.0000000000
  -0.0005052700    0.0000000000    0.0000000000
   0.0004962200    0.0000000000    0.0000000000
  -0.0010057500   -0.0000055300   -0.0000055300
   0.0007424400    0.0000011700    0.0000011700
  -0.0010057500    0.0000055300   -0.0000055300
   0.0007424400   -0.0000011700    0.0000011700
  -0.0010057500   -0.0000055300    0.0000055300
   0.0007424400    0.0000011700   -0.0000011700
  -0.0010057500    0.0000055300    0.0000055300
   0.0007424400   -0.0000011700   -0.0000011700
   0.0009173700    0.0000000000    0.0062245900
   0.0009148100    0.0000000000   -0.0061808700
  -0.0000132900    0.0000000000   -0.0005269900
  -0.0000111300    0.0000000000    0.0005246000
   0.0009173700    0.0000000000   -0.0062245900
   0.0009148100    0.0000000000    0.0061808700
  -0.0000132900    0.0000000000    0.0005269900
  -0.0000111300    0.0000000000   -0.0005246000
   0.0009173700    0.0062245900    0.0000000000
   0.0009148100   -0.0061808700    0.0000000000
   0.0009173700   -0.0062245900    0.0000000000
   0.0009148100    0.0061808700    0.0000000000
  -0.0000132900   -0.0005269900    0.0000000000
  -0.0000111300    0.0005246000    0.0000000000
  -0.0000132900    0.0005269900    0.0000000000
  -0.0000111300   -0.0005246000    0.0000000000
   0.0154459300    0.0000000000    0.0000000000
   0.0142747700    0.0000000000    0.0000000000
   0.0004701800    0.0000000000    0.0000000000
   0.0004710800    0.0000000000    0.0000000000
   0.0004701800    0.0000000000    0.0000000000
   0.0004710800    0.0000000000    0.0000000000
  -0.0000110900    0.0000000000    0.0000000000
  -0.0000081400    0.0000000000    0.0000000000
  -0.0000176300   -0.0009667200   -0.0009667200
  -0.0000201000    0.0009579700    0.0009579700
  -0.0000176300    0.0009667200   -0.0009667200
  -0.0000201000   -0.0009579700    0.0009579700
  -0.0000176300   -0.0009667200    0.0009667200
  -0.0000201000    0.0009579700   -0.0009579700
  -0.0000176300    0.0009667200    0.0009667200
  -0.0000201000   -0.0009579700   -0.0009579700
   0.0029255800    0.0000000000   -0.0000467500
  -0.0026674400    0.0000000000   -0.0000025700
   0.0003657500    0.0000000000    0.0000051000
  -0.0004260500    0.0000000000   -0.0000003000
   0.0029255800    0.0000000000    0.0000467500
  -0.0026674400    0.0000000000    0.0000025700
   0.0003657500    0.0000000000   -0.0000051000
  -0.0004260500    0.0000000000    0.0000003000
   0.0029255800   -0.0000467500    0.0000000000
  -0.0026674400   -0.0000025700    0.0000000000
   0.0029255800    0.0000467500    0.0000000000
  -0.0026674400    0.0000025700    0.0000000000
   0.0003657500    0.0000051000    0.0000000000
  -0.0004260500   -0.0000003000    0.0000000000
   0.0003657500   -0.0000051000    0.0000000000
  -0.0004260500    0.0000003000    0.0000000000

33   
  0.0100000000000000   0.0000000000000000   0.0000000000000000
   0.0142569400    0.0000000000    0.0000000000
   0.0154665800    0.0000000000    0.0000000000
   0.0004713500    0.0000000000    0.0000000000
   0.0004742000    0.0000000000    0.0000000000
   0.0004713500    0.0000000000    0.0000000000
   0.0004742000    0.0000000000    0.0000000000
  -0.0000063800    0.0000000000    0.0000000000
  -0.0000057800    0.0000000000    0.0000000000
  -0.0000164000    0.0009626400    0.0009626400
  -0.0000139100   -0.0009619000   -0.0009619000
  -0.0000164000   -0.0009626400    0.0009626400
  -0.0000139100    0.0009619000   -0.0009619000
  -0.0000164000    0.0009626400   -0.0009626400
  -0.0000139100   -0.0009619000    0.0009619000
  -0.0000164000   -0.0009626400   -0.0009626400
  -0.0000139100    0.0009619000    0.0009619000
   0.0029257600    0.0000000000   -0.0000378300
  -0.0026622600    0.0000000000    0.0000004200
   0.0003652900    0.0000000000   -0.0000004300
  -0.0004192400    0.0000000000   -0.0000005700
   0.0029257600    0.0000000000    0.0000378300
  -0.0026622600    0.0000000000   -0.0000004200
   0.0003652900    0.0000000000    0.0000004300
  -0.0004192400    0.0000000000    0.0000005700
   0.0029257600   -0.0000378300    0.0000000000
  -0.0026622600    0.0000004200    0.0000000000
   0.0029257600    0.0000378300    0.0000000000
  -0.0026622600   -0.0000004200    0.0000000000
   0.0003652900   -0.0000004300    0.0000000000
  -0.0004192400   -0.0000005700    0.0000000000
   0.0003652900    0.0000004300    0.0000000000
  -0.0004192400    0.0000005700    0.0000000000
  -0.0670044100    0.0000000000    0.0000000000
   0.0022316800    0.0000000000    0.0000000000
  -0.0012446900    0.0000000000    0.0000000000
   0.0029226100    0.0000000000    0.0000000000
  -0.0012446900    0.0000000000    0.0000000000
   0.0029226100    0.0000000000    0.0000000000
  -0.0004924300    0.0000000000    0.0000000000
   0.0004828600    0.0000000000    0.0000000000
  -0.0014510400   -0.0000034500   -0.0000034500
   0.0010944600   -0.0000003700   -0.0000003700
  -0.0014510400    0.0000034500   -0.0000034500
   0.0010944600    0.0000003700   -0.0000003700
  -0.0014510400   -0.0000034500    0.0000034500
   0.0010944600   -0.0000003700    0.0000003700
  -0.0014510400    0.0000034500    0.0000034500
   0.0010944600    0.0000003700    0.0000003700
   0.0038612400    0.0000000000   -0.0058369400
   0.0038749100    0.0000000000    0.0058789800
  -0.0000507500    0.0000000000   -0.0005471100
  -0.0000520400    0.0000000000    0.0005489300
   0.0038612400    0.0000000000    0.0058369400
   0.0038749100    0.0000000000   -0.0058789800
  -0.0000507500    0.0000000000    0.0005471100
  -0.0000520400    0.0000000000   -0.0005489300
   0.0038612400   -0.0058369400    0.0000000000
   0.0038749100    0.0058789800    0.0000000000
   0.0038612400    0.0058369400    0.0000000000
   0.0038749100   -0.0058789800    0.0000000000
  -0.0000507500   -0.0005471100    0.0000000000
  -0.0000520400    0.0005489300    0.0000000000
  -0.0000507500    0.0005471100    0.0000000000
  -0.0000520400   -0.0005489300    0.0000000000
