   64   64    1    1
  0.1755761E+02  0.1039637E-08  0.1039637E-08  0.1039637E-08  0.5000000E-15
  1.000000000000000E-004
  CAR 
 unknown system                          
    448      6    268
 
  0.0000000E+00  0.0000000E+00  0.0000000E+00  0.1250000E+00
    1      -37.751766
    2      -37.751667
    3      -37.751345
    4      -37.751345
    5      -37.750924
    6      -37.750924
    7      -37.750781
    8      -37.749707
    9      -37.749675
   10      -37.749600
   11      -37.749600
   12      -37.749598
   13      -37.749476
   14      -37.749476
   15      -37.749440
   16      -37.749161
   17      -37.749161
   18      -37.749128
   19      -37.749128
   20      -37.749107
   21      -37.748981
   22      -37.748719
   23      -37.748648
   24      -37.748487
   25      -37.748487
   26      -37.748433
   27      -37.748433
   28      -37.748424
   29      -37.748354
   30      -37.748284
   31      -37.748284
   32      -37.747720
   33      -37.747547
   34      -37.747504
   35      -37.747504
   36      -37.747484
   37      -37.747404
   38      -37.747353
   39      -37.747331
   40      -37.747331
   41      -37.747156
   42      -37.747156
   43      -37.747122
   44      -37.746921
   45      -37.746913
   46      -37.746910
   47      -37.746909
   48      -37.746909
   49      -37.746906
   50      -37.746884
   51      -37.746877
   52      -37.746877
   53      -37.746808
   54      -37.746794
   55      -37.746719
   56      -37.746715
   57      -37.746715
   58      -37.746665
   59      -37.746312
   60      -37.746312
   61      -37.745879
   62      -37.745873
   63      -37.745864
   64      -37.745697
   65      -37.745697
   66      -37.745622
   67      -37.745556
   68      -37.745491
   69      -37.745491
   70      -37.745428
   71      -37.745428
   72      -37.745265
   73      -37.745221
   74      -37.744939
   75      -37.744939
   76      -37.744927
   77      -37.744927
   78      -37.744919
   79      -37.744882
   80      -37.744882
   81      -37.744854
   82      -37.744808
   83      -37.744808
   84      -37.744615
   85      -37.744581
   86      -37.744581
   87      -37.744551
   88      -37.744353
   89      -37.744261
   90      -37.744064
   91      -37.744064
   92      -37.743535
   93      -37.743493
   94      -37.743342
   95      -37.743250
   96      -37.743250
   97       -9.202904
   98       -8.452740
   99       -8.450346
  100       -8.450346
  101       -8.450343
  102       -8.450342
  103       -8.448057
  104       -7.943711
  105       -7.939169
  106       -7.939169
  107       -7.939083
  108       -7.939074
  109       -7.939070
  110       -7.939070
  111       -7.939066
  112       -7.939064
  113       -7.938968
  114       -7.938968
  115       -7.934639
  116       -7.858608
  117       -7.858608
  118       -7.858604
  119       -7.858517
  120       -7.488069
  121       -7.488004
  122       -7.488001
  123       -7.440691
  124       -7.438495
  125       -7.438494
  126       -7.438494
  127       -7.438489
  128       -7.436121
  129       -1.411108
  130       -1.411108
  131       -1.411105
  132       -1.411094
  133       -0.766905
  134       -0.766897
  135       -0.766897
  136       -0.260857
  137       -0.260857
  138       -0.260245
  139       -0.259729
  140       -0.259568
  141       -0.259506
  142       -0.259506
  143       -0.259503
  144       -0.259282
  145       -0.258766
  146       -0.258186
  147       -0.258186
  148        0.207342
  149        0.207342
  150        0.208585
  151        0.208585
  152        0.208993
  153        0.208995
  154        0.208996
  155        0.209013
  156        0.209405
  157        0.209405
  158        0.210645
  159        0.210645
  160        0.901678
  161        0.902461
  162        0.902488
  163        0.902488
  164        0.902512
  165        0.903341
  166        1.096402
  167        1.096517
  168        1.096825
  169        1.096825
  170        1.097014
  171        1.097616
  172        1.117047
  173        1.117047
  174        1.117706
  175        1.117982
  176        1.117997
  177        1.118018
  178        1.118127
  179        1.118127
  180        1.118295
  181        1.118526
  182        1.119022
  183        1.119022
  184        1.788840
  185        1.788840
  186        1.788840
  187        1.788844
  188        1.788848
  189        1.788848
  190        2.509911
  191        2.509911
  192        2.510658
  193        2.510658
  194        2.510988
  195        2.511106
  196        2.511109
  197        2.511109
  198        2.511564
  199        2.511564
  200        2.512281
  201        2.512281
  202        2.853826
  203        2.853826
  204        2.854468
  205        2.855116
  206        2.855132
  207        2.855132
  208        2.855132
  209        2.855134
  210        2.855227
  211        2.855804
  212        2.856346
  213        2.856346
  214        2.895927
  215        2.895927
  216        2.895927
  217        2.895929
  218        2.895942
  219        2.895970
  220        2.896024
  221        2.896024
  222        3.500236
  223        3.500236
  224        3.500248
  225        6.215347
  226        6.215351
  227        6.215360
  228        7.118033
  229        7.731720
  230        7.731720
  231        7.731733
  232        7.905739
  233        7.905744
  234        7.905753
  235        7.905753
  236        8.448565
  237        8.449055
  238        8.449071
  239        8.449071
  240        8.449077
  241        8.449564
  242        8.725399
  243        8.726049
  244        8.726060
  245        8.726060
  246        8.726069
  247        8.726727
  248        8.974226
  249        8.975460
  250        8.975460
  251        8.975532
  252        8.975547
  253        8.976859
  254        9.082109
  255        9.082638
  256        9.082638
  257        9.083161
  258        9.083240
  259        9.083256
  260        9.083282
  261        9.083282
  262        9.083325
  263        9.083887
  264        9.083887
  265        9.084393
  266       10.332811
  267       10.332816
  268       10.332823
 
  0.5000000E+00  0.0000000E+00  0.0000000E+00  0.1250000E+00
    1      -37.751567
    2      -37.751426
    3      -37.750863
    4      -37.750863
    5      -37.750770
    6      -37.750770
    7      -37.750513
    8      -37.750183
    9      -37.750183
   10      -37.749739
   11      -37.749728
   12      -37.749719
   13      -37.749551
   14      -37.749551
   15      -37.749519
   16      -37.749422
   17      -37.749422
   18      -37.749381
   19      -37.749381
   20      -37.749363
   21      -37.749358
   22      -37.749153
   23      -37.748937
   24      -37.748905
   25      -37.748905
   26      -37.748714
   27      -37.748337
   28      -37.748276
   29      -37.748276
   30      -37.748193
   31      -37.748016
   32      -37.747979
   33      -37.747978
   34      -37.747852
   35      -37.747710
   36      -37.747710
   37      -37.747709
   38      -37.747703
   39      -37.747645
   40      -37.747645
   41      -37.747642
   42      -37.747028
   43      -37.747028
   44      -37.746756
   45      -37.746749
   46      -37.746630
   47      -37.746630
   48      -37.746517
   49      -37.746517
   50      -37.746513
   51      -37.746477
   52      -37.746292
   53      -37.746230
   54      -37.746156
   55      -37.746156
   56      -37.746072
   57      -37.746072
   58      -37.745974
   59      -37.745974
   60      -37.745924
   61      -37.745872
   62      -37.745848
   63      -37.745825
   64      -37.745790
   65      -37.745675
   66      -37.745627
   67      -37.745626
   68      -37.745578
   69      -37.745558
   70      -37.745446
   71      -37.745324
   72      -37.745126
   73      -37.745120
   74      -37.745120
   75      -37.745010
   76      -37.745010
   77      -37.744908
   78      -37.744908
   79      -37.744899
   80      -37.744899
   81      -37.744889
   82      -37.744785
   83      -37.744696
   84      -37.744678
   85      -37.744678
   86      -37.744602
   87      -37.744602
   88      -37.744409
   89      -37.744149
   90      -37.744032
   91      -37.744032
   92      -37.743813
   93      -37.743507
   94      -37.743329
   95      -37.743329
   96      -37.743322
   97       -8.998546
   98       -8.996317
   99       -8.305395
  100       -8.302305
  101       -8.302305
  102       -8.301921
  103       -8.301675
  104       -8.301294
  105       -8.301294
  106       -8.298327
  107       -7.902901
  108       -7.900408
  109       -7.899525
  110       -7.899525
  111       -7.899476
  112       -7.899476
  113       -7.898605
  114       -7.896233
  115       -7.802531
  116       -7.800697
  117       -7.584164
  118       -7.581227
  119       -7.581227
  120       -7.580975
  121       -7.580659
  122       -7.580408
  123       -7.580408
  124       -7.577469
  125       -7.465557
  126       -7.463474
  127       -7.463451
  128       -7.461255
  129       -0.980487
  130       -0.980487
  131       -0.980327
  132       -0.979339
  133       -0.978818
  134       -0.977854
  135       -0.977699
  136       -0.977699
  137       -0.514145
  138       -0.514145
  139       -0.511979
  140       -0.511979
  141       -0.298431
  142       -0.295888
  143       -0.273352
  144       -0.270986
  145       -0.270643
  146       -0.270643
  147       -0.270211
  148       -0.270211
  149       -0.269860
  150       -0.267243
  151        0.375543
  152        0.375543
  153        0.376359
  154        0.376497
  155        0.376504
  156        0.376647
  157        0.377384
  158        0.377384
  159        0.445983
  160        0.445983
  161        0.446691
  162        0.447153
  163        0.447879
  164        0.448339
  165        0.449108
  166        0.449108
  167        1.203347
  168        1.203347
  169        1.204649
  170        1.204649
  171        1.404633
  172        1.406967
  173        1.407294
  174        1.409593
  175        1.981377
  176        1.981377
  177        1.983496
  178        1.983496
  179        2.011140
  180        2.011140
  181        2.011919
  182        2.012065
  183        2.012688
  184        2.012834
  185        2.013154
  186        2.013154
  187        2.018387
  188        2.018943
  189        2.018943
  190        2.019297
  191        2.019396
  192        2.020200
  193        2.020250
  194        2.020250
  195        2.109883
  196        2.112552
  197        2.112771
  198        2.112771
  199        2.113180
  200        2.113180
  201        2.113374
  202        2.116095
  203        2.467599
  204        2.469614
  205        2.804974
  206        2.807896
  207        2.808495
  208        2.808495
  209        2.808612
  210        2.808612
  211        2.809214
  212        2.812221
  213        2.873384
  214        2.873384
  215        2.875326
  216        2.875333
  217        2.875354
  218        2.875390
  219        2.877303
  220        2.877303
  221        3.167136
  222        3.167136
  223        3.168780
  224        3.168780
  225        6.856088
  226        6.857405
  227        7.246279
  228        7.247052
  229        7.247524
  230        7.248284
  231        8.047744
  232        8.050096
  233        8.278966
  234        8.279777
  235        8.688406
  236        8.688727
  237        8.688727
  238        8.688817
  239        8.688852
  240        8.688902
  241        8.688902
  242        8.689273
  243        8.717726
  244        8.717727
  245        8.718183
  246        8.718183
  247        8.719666
  248        8.719666
  249        8.720131
  250        8.720149
  251        8.850034
  252        8.850034
  253        8.852707
  254        8.852707
  255        9.241969
  256        9.242351
  257        9.242351
  258        9.242872
  259        9.242987
  260        9.243506
  261        9.243506
  262        9.243878
  263        9.860505
  264        9.862294
  265        9.864422
  266        9.867308
  267        9.871036
  268        9.879283
 
  0.0000000E+00  0.5000000E+00  0.0000000E+00  0.2500000E+00
    1      -37.751295
    2      -37.751139
    3      -37.750902
    4      -37.750866
    5      -37.750793
    6      -37.750736
    7      -37.750706
    8      -37.750415
    9      -37.750357
   10      -37.750345
   11      -37.750254
   12      -37.750023
   13      -37.749999
   14      -37.749923
   15      -37.749383
   16      -37.749194
   17      -37.749183
   18      -37.749138
   19      -37.749046
   20      -37.748954
   21      -37.748782
   22      -37.748688
   23      -37.748556
   24      -37.748477
   25      -37.748453
   26      -37.748420
   27      -37.748376
   28      -37.748361
   29      -37.748211
   30      -37.748168
   31      -37.748156
   32      -37.748107
   33      -37.748099
   34      -37.748095
   35      -37.748022
   36      -37.747970
   37      -37.747918
   38      -37.747916
   39      -37.747666
   40      -37.747471
   41      -37.747382
   42      -37.747317
   43      -37.747204
   44      -37.747036
   45      -37.746859
   46      -37.746839
   47      -37.746764
   48      -37.746651
   49      -37.746594
   50      -37.746525
   51      -37.746338
   52      -37.746284
   53      -37.746243
   54      -37.746212
   55      -37.746057
   56      -37.746052
   57      -37.746016
   58      -37.745873
   59      -37.745795
   60      -37.745792
   61      -37.745764
   62      -37.745680
   63      -37.745666
   64      -37.745649
   65      -37.745641
   66      -37.745604
   67      -37.745545
   68      -37.745532
   69      -37.745514
   70      -37.745479
   71      -37.745473
   72      -37.745451
   73      -37.745444
   74      -37.745308
   75      -37.745164
   76      -37.745150
   77      -37.745026
   78      -37.744949
   79      -37.744890
   80      -37.744885
   81      -37.744878
   82      -37.744857
   83      -37.744783
   84      -37.744635
   85      -37.744370
   86      -37.744330
   87      -37.744327
   88      -37.744163
   89      -37.744126
   90      -37.744073
   91      -37.743875
   92      -37.743673
   93      -37.743608
   94      -37.743473
   95      -37.743450
   96      -37.743439
   97       -8.997448
   98       -8.997419
   99       -8.305331
  100       -8.301957
  101       -8.301801
  102       -8.301800
  103       -8.301797
  104       -8.301795
  105       -8.301643
  106       -8.298389
  107       -7.899884
  108       -7.899562
  109       -7.899510
  110       -7.899507
  111       -7.899503
  112       -7.899495
  113       -7.899441
  114       -7.899318
  115       -7.801638
  116       -7.801547
  117       -7.584232
  118       -7.580985
  119       -7.580818
  120       -7.580816
  121       -7.580816
  122       -7.580814
  123       -7.580653
  124       -7.577395
  125       -7.463465
  126       -7.463464
  127       -7.463463
  128       -7.463323
  129       -0.979362
  130       -0.979171
  131       -0.979157
  132       -0.979129
  133       -0.979036
  134       -0.979031
  135       -0.979030
  136       -0.978820
  137       -0.513067
  138       -0.513059
  139       -0.513057
  140       -0.513057
  141       -0.297186
  142       -0.297015
  143       -0.272544
  144       -0.270569
  145       -0.270430
  146       -0.270423
  147       -0.270421
  148       -0.270417
  149       -0.270280
  150       -0.268153
  151        0.375494
  152        0.375928
  153        0.376268
  154        0.376408
  155        0.376499
  156        0.376500
  157        0.377064
  158        0.377503
  159        0.446340
  160        0.447468
  161        0.447515
  162        0.447518
  163        0.447559
  164        0.447564
  165        0.447737
  166        0.448723
  167        1.203985
  168        1.203992
  169        1.203998
  170        1.203999
  171        1.407109
  172        1.407133
  173        1.407135
  174        1.407136
  175        1.982266
  176        1.982411
  177        1.982475
  178        1.982479
  179        2.010601
  180        2.011290
  181        2.011957
  182        2.012252
  183        2.012306
  184        2.012371
  185        2.012498
  186        2.013252
  187        2.018512
  188        2.018581
  189        2.019352
  190        2.019392
  191        2.020003
  192        2.020067
  193        2.020144
  194        2.021246
  195        2.112662
  196        2.112754
  197        2.112884
  198        2.112930
  199        2.113022
  200        2.113045
  201        2.113268
  202        2.113304
  203        2.468601
  204        2.468603
  205        2.806504
  206        2.808381
  207        2.808535
  208        2.808562
  209        2.808562
  210        2.808564
  211        2.808742
  212        2.810634
  213        2.875089
  214        2.875338
  215        2.875341
  216        2.875342
  217        2.875342
  218        2.875346
  219        2.875356
  220        2.875589
  221        3.167950
  222        3.167951
  223        3.167970
  224        3.168019
  225        6.856744
  226        6.856747
  227        7.247282
  228        7.247286
  229        7.247289
  230        7.247291
  231        8.048892
  232        8.048924
  233        8.279372
  234        8.279380
  235        8.688247
  236        8.688284
  237        8.688811
  238        8.688821
  239        8.688832
  240        8.688839
  241        8.689369
  242        8.689384
  243        8.718696
  244        8.718710
  245        8.718731
  246        8.718776
  247        8.719088
  248        8.719113
  249        8.719163
  250        8.719181
  251        8.851353
  252        8.851355
  253        8.851367
  254        8.851398
  255        9.242012
  256        9.242811
  257        9.242928
  258        9.242928
  259        9.242930
  260        9.242932
  261        9.243044
  262        9.243829
  263        9.862110
  264        9.862265
  265        9.862734
  266        9.863849
  267        9.873918
  268        9.884887
 
  0.5000000E+00  0.5000000E+00  0.0000000E+00  0.2500000E+00
    1      -37.751181
    2      -37.751035
    3      -37.750778
    4      -37.750700
    5      -37.750635
    6      -37.750516
    7      -37.750469
    8      -37.750215
    9      -37.750211
   10      -37.750135
   11      -37.749979
   12      -37.749920
   13      -37.749844
   14      -37.749756
   15      -37.749465
   16      -37.749463
   17      -37.749448
   18      -37.749431
   19      -37.749221
   20      -37.749201
   21      -37.749142
   22      -37.749110
   23      -37.749105
   24      -37.748987
   25      -37.748980
   26      -37.748721
   27      -37.748665
   28      -37.748609
   29      -37.748343
   30      -37.748288
   31      -37.748133
   32      -37.747934
   33      -37.747876
   34      -37.747607
   35      -37.747330
   36      -37.747299
   37      -37.747267
   38      -37.747229
   39      -37.747196
   40      -37.747060
   41      -37.746993
   42      -37.746959
   43      -37.746829
   44      -37.746637
   45      -37.746605
   46      -37.746580
   47      -37.746550
   48      -37.746512
   49      -37.746428
   50      -37.746408
   51      -37.746344
   52      -37.746339
   53      -37.746306
   54      -37.746259
   55      -37.746257
   56      -37.746194
   57      -37.746157
   58      -37.746136
   59      -37.746095
   60      -37.746010
   61      -37.745938
   62      -37.745828
   63      -37.745806
   64      -37.745800
   65      -37.745768
   66      -37.745653
   67      -37.745560
   68      -37.745457
   69      -37.745426
   70      -37.745407
   71      -37.745401
   72      -37.745327
   73      -37.745316
   74      -37.745302
   75      -37.745256
   76      -37.745191
   77      -37.745146
   78      -37.745137
   79      -37.745122
   80      -37.745048
   81      -37.744953
   82      -37.744914
   83      -37.744786
   84      -37.744549
   85      -37.744416
   86      -37.744322
   87      -37.744316
   88      -37.744262
   89      -37.744062
   90      -37.744022
   91      -37.743825
   92      -37.743641
   93      -37.743545
   94      -37.743499
   95      -37.743428
   96      -37.743324
   97       -8.807013
   98       -8.805316
   99       -8.804762
  100       -8.803116
  101       -8.182567
  102       -8.179737
  103       -8.179633
  104       -8.179273
  105       -8.179105
  106       -8.178751
  107       -8.178642
  108       -8.175928
  109       -7.731528
  110       -7.728654
  111       -7.728549
  112       -7.728231
  113       -7.728126
  114       -7.727806
  115       -7.727708
  116       -7.725171
  117       -7.664223
  118       -7.661629
  119       -7.661558
  120       -7.661221
  121       -7.661112
  122       -7.660776
  123       -7.660710
  124       -7.657824
  125       -7.487367
  126       -7.485783
  127       -7.485306
  128       -7.483606
  129       -0.880012
  130       -0.879807
  131       -0.879303
  132       -0.878456
  133       -0.878324
  134       -0.877504
  135       -0.876998
  136       -0.876805
  137       -0.323695
  138       -0.322780
  139       -0.321119
  140       -0.320806
  141       -0.320585
  142       -0.320382
  143       -0.319068
  144       -0.319020
  145       -0.316337
  146       -0.315383
  147       -0.314910
  148       -0.314903
  149       -0.314902
  150       -0.313954
  151       -0.313610
  152       -0.313454
  153       -0.264513
  154       -0.263047
  155       -0.262408
  156       -0.260825
  157        0.255633
  158        0.256094
  159        0.256741
  160        0.257205
  161        1.314776
  162        1.315553
  163        1.316252
  164        1.316367
  165        1.316597
  166        1.316727
  167        1.317401
  168        1.318141
  169        1.416183
  170        1.418274
  171        1.418618
  172        1.418786
  173        1.418923
  174        1.419110
  175        1.419430
  176        1.421494
  177        1.518275
  178        1.518309
  179        1.519263
  180        1.519307
  181        1.877122
  182        1.877807
  183        1.878950
  184        1.879075
  185        1.879243
  186        1.879370
  187        1.880507
  188        1.881160
  189        2.111633
  190        2.112203
  191        2.113735
  192        2.114316
  193        2.323692
  194        2.324461
  195        2.324967
  196        2.325299
  197        2.325524
  198        2.325868
  199        2.326360
  200        2.327095
  201        2.562481
  202        2.563239
  203        2.563261
  204        2.563734
  205        2.563851
  206        2.564321
  207        2.564346
  208        2.565094
  209        2.689369
  210        2.690546
  211        2.691973
  212        2.692032
  213        2.692055
  214        2.692117
  215        2.693556
  216        2.694783
  217        2.769278
  218        2.770302
  219        2.770804
  220        2.771871
  221        3.388499
  222        3.389029
  223        3.390669
  224        3.391215
  225        7.326132
  226        7.326290
  227        7.327535
  228        7.327697
  229        7.791180
  230        7.791761
  231        7.791768
  232        7.791963
  233        7.792538
  234        7.792728
  235        7.792742
  236        7.793312
  237        8.667173
  238        8.668183
  239        8.669217
  240        8.669239
  241        8.669286
  242        8.669308
  243        8.670346
  244        8.671335
  245        8.789814
  246        8.790512
  247        8.790679
  248        8.791365
  249        9.012851
  250        9.012930
  251        9.013047
  252        9.013145
  253        9.013724
  254        9.013810
  255        9.013891
  256        9.014029
  257        9.118233
  258        9.118722
  259        9.120223
  260        9.120485
  261        9.120997
  262        9.121261
  263        9.122753
  264        9.123218
  265        9.494476
  266        9.495053
  267        9.495831
  268        9.496065
 
  0.0000000E+00  0.5000000E+00  0.5000000E+00  0.1250000E+00
    1      -37.751114
    2      -37.750977
    3      -37.750977
    4      -37.750964
    5      -37.750445
    6      -37.750445
    7      -37.750410
    8      -37.750407
    9      -37.750117
   10      -37.749810
   11      -37.749810
   12      -37.749763
   13      -37.749763
   14      -37.749616
   15      -37.749592
   16      -37.749577
   17      -37.749572
   18      -37.749509
   19      -37.749472
   20      -37.749471
   21      -37.749134
   22      -37.749019
   23      -37.749019
   24      -37.748944
   25      -37.748908
   26      -37.748876
   27      -37.748876
   28      -37.748579
   29      -37.748101
   30      -37.748101
   31      -37.747974
   32      -37.747931
   33      -37.747835
   34      -37.747707
   35      -37.747576
   36      -37.747327
   37      -37.747327
   38      -37.747176
   39      -37.747176
   40      -37.746835
   41      -37.746823
   42      -37.746823
   43      -37.746767
   44      -37.746765
   45      -37.746764
   46      -37.746764
   47      -37.746743
   48      -37.746742
   49      -37.746742
   50      -37.746741
   51      -37.746439
   52      -37.746433
   53      -37.746332
   54      -37.746303
   55      -37.746247
   56      -37.746247
   57      -37.746082
   58      -37.746082
   59      -37.746061
   60      -37.746061
   61      -37.745704
   62      -37.745704
   63      -37.745694
   64      -37.745662
   65      -37.745638
   66      -37.745493
   67      -37.745412
   68      -37.745401
   69      -37.745318
   70      -37.745318
   71      -37.745253
   72      -37.745253
   73      -37.745132
   74      -37.745108
   75      -37.745108
   76      -37.745108
   77      -37.745108
   78      -37.745085
   79      -37.745085
   80      -37.744861
   81      -37.744837
   82      -37.744831
   83      -37.744831
   84      -37.744757
   85      -37.744757
   86      -37.744651
   87      -37.744563
   88      -37.744471
   89      -37.744470
   90      -37.744000
   91      -37.744000
   92      -37.743805
   93      -37.743382
   94      -37.743295
   95      -37.743295
   96      -37.743244
   97       -8.805109
   98       -8.805040
   99       -8.805038
  100       -8.805038
  101       -8.179776
  102       -8.179220
  103       -8.179220
  104       -8.179192
  105       -8.179189
  106       -8.179159
  107       -8.179159
  108       -8.178703
  109       -7.728885
  110       -7.728189
  111       -7.728181
  112       -7.728181
  113       -7.728179
  114       -7.728176
  115       -7.728176
  116       -7.728174
  117       -7.661192
  118       -7.661192
  119       -7.661168
  120       -7.661163
  121       -7.661163
  122       -7.661143
  123       -7.661143
  124       -7.660528
  125       -7.485546
  126       -7.485543
  127       -7.485543
  128       -7.485418
  129       -0.878796
  130       -0.878796
  131       -0.878424
  132       -0.878392
  133       -0.878390
  134       -0.878388
  135       -0.878016
  136       -0.878016
  137       -0.321494
  138       -0.321494
  139       -0.320900
  140       -0.320700
  141       -0.320686
  142       -0.320685
  143       -0.320685
  144       -0.320685
  145       -0.315473
  146       -0.314960
  147       -0.314960
  148       -0.314960
  149       -0.314840
  150       -0.314653
  151       -0.314065
  152       -0.314065
  153       -0.262726
  154       -0.262724
  155       -0.262724
  156       -0.262216
  157        0.256419
  158        0.256419
  159        0.256419
  160        0.256425
  161        1.316044
  162        1.316044
  163        1.316484
  164        1.316487
  165        1.316488
  166        1.316492
  167        1.316897
  168        1.316897
  169        1.418766
  170        1.418852
  171        1.418853
  172        1.418853
  173        1.418853
  174        1.418858
  175        1.418859
  176        1.418859
  177        1.518787
  178        1.518789
  179        1.518790
  180        1.518790
  181        1.879150
  182        1.879150
  183        1.879159
  184        1.879162
  185        1.879162
  186        1.879164
  187        1.879164
  188        1.879164
  189        2.112956
  190        2.112956
  191        2.112970
  192        2.112972
  193        2.325321
  194        2.325321
  195        2.325400
  196        2.325411
  197        2.325411
  198        2.325412
  199        2.325508
  200        2.325508
  201        2.563548
  202        2.563722
  203        2.563753
  204        2.563753
  205        2.563836
  206        2.563836
  207        2.563864
  208        2.563928
  209        2.691787
  210        2.691787
  211        2.691992
  212        2.692025
  213        2.692063
  214        2.692104
  215        2.692305
  216        2.692305
  217        2.770552
  218        2.770557
  219        2.770557
  220        2.770746
  221        3.389847
  222        3.389851
  223        3.389854
  224        3.389854
  225        7.326912
  226        7.326914
  227        7.326919
  228        7.326919
  229        7.792229
  230        7.792247
  231        7.792247
  232        7.792249
  233        7.792251
  234        7.792254
  235        7.792254
  236        7.792263
  237        8.668498
  238        8.668600
  239        8.669059
  240        8.669059
  241        8.669469
  242        8.669469
  243        8.669862
  244        8.670024
  245        8.790587
  246        8.790587
  247        8.790595
  248        8.790630
  249        9.012931
  250        9.012931
  251        9.013378
  252        9.013424
  253        9.013432
  254        9.013432
  255        9.013876
  256        9.013876
  257        9.120736
  258        9.120736
  259        9.120738
  260        9.120741
  261        9.120742
  262        9.120748
  263        9.120753
  264        9.120753
  265        9.494912
  266        9.495230
  267        9.495406
  268        9.495630
 