# epsilon and Z* of atoms 1 5
   3.24166294    0.00000000    0.00000000    0.00000000    3.24166294    0.00000000    0.00000000    0.00000000    3.24166294 
  -1.97910491    0.00000000    0.00000000    0.00000000   -1.97910491    0.00000000    0.00000000    0.00000000   -1.97910491 
   1.97910491    0.00000000    0.00000000    0.00000000    1.97910491    0.00000000    0.00000000    0.00000000    1.97910491 
