natom:   64
displacements:
- atom:    1
  displacement:
    [   0.0100000000000000,  0.0000000000000000,  0.0000000000000000 ]
- atom:   33
  displacement:
    [   0.0100000000000000,  0.0000000000000000,  0.0000000000000000 ]
lattice:
- [     8.4345188199999992,     0.0000000000000000,     0.0000000000000000 ] # a
- [     0.0000000000000000,     8.4345188199999992,     0.0000000000000000 ] # b
- [     0.0000000000000000,     0.0000000000000000,     8.4345188199999992 ] # c
atoms:
- symbol: O  # 1
  position: [  0.2500000000000000,  0.0000000000000000,  0.0000000000000000 ]
  mass: 15.999400
- symbol: O  # 2
  position: [  0.7500000000000000,  0.0000000000000000,  0.0000000000000000 ]
  mass: 15.999400
- symbol: O  # 3
  position: [  0.2500000000000000,  0.5000000000000000,  0.0000000000000000 ]
  mass: 15.999400
- symbol: O  # 4
  position: [  0.7500000000000000,  0.5000000000000000,  0.0000000000000000 ]
  mass: 15.999400
- symbol: O  # 5
  position: [  0.2500000000000000,  0.0000000000000000,  0.5000000000000000 ]
  mass: 15.999400
- symbol: O  # 6
  position: [  0.7500000000000000,  0.0000000000000000,  0.5000000000000000 ]
  mass: 15.999400
- symbol: O  # 7
  position: [  0.2500000000000000,  0.5000000000000000,  0.5000000000000000 ]
  mass: 15.999400
- symbol: O  # 8
  position: [  0.7500000000000000,  0.5000000000000000,  0.5000000000000000 ]
  mass: 15.999400
- symbol: O  # 9
  position: [  0.2500000000000000,  0.2500000000000000,  0.2500000000000000 ]
  mass: 15.999400
- symbol: O  # 10
  position: [  0.7500000000000000,  0.2500000000000000,  0.2500000000000000 ]
  mass: 15.999400
- symbol: O  # 11
  position: [  0.2500000000000000,  0.7500000000000000,  0.2500000000000000 ]
  mass: 15.999400
- symbol: O  # 12
  position: [  0.7500000000000000,  0.7500000000000000,  0.2500000000000000 ]
  mass: 15.999400
- symbol: O  # 13
  position: [  0.2500000000000000,  0.2500000000000000,  0.7500000000000000 ]
  mass: 15.999400
- symbol: O  # 14
  position: [  0.7500000000000000,  0.2500000000000000,  0.7500000000000000 ]
  mass: 15.999400
- symbol: O  # 15
  position: [  0.2500000000000000,  0.7500000000000000,  0.7500000000000000 ]
  mass: 15.999400
- symbol: O  # 16
  position: [  0.7500000000000000,  0.7500000000000000,  0.7500000000000000 ]
  mass: 15.999400
- symbol: O  # 17
  position: [  0.0000000000000000,  0.0000000000000000,  0.2500000000000000 ]
  mass: 15.999400
- symbol: O  # 18
  position: [  0.5000000000000000,  0.0000000000000000,  0.2500000000000000 ]
  mass: 15.999400
- symbol: O  # 19
  position: [  0.0000000000000000,  0.5000000000000000,  0.2500000000000000 ]
  mass: 15.999400
- symbol: O  # 20
  position: [  0.5000000000000000,  0.5000000000000000,  0.2500000000000000 ]
  mass: 15.999400
- symbol: O  # 21
  position: [  0.0000000000000000,  0.0000000000000000,  0.7500000000000000 ]
  mass: 15.999400
- symbol: O  # 22
  position: [  0.5000000000000000,  0.0000000000000000,  0.7500000000000000 ]
  mass: 15.999400
- symbol: O  # 23
  position: [  0.0000000000000000,  0.5000000000000000,  0.7500000000000000 ]
  mass: 15.999400
- symbol: O  # 24
  position: [  0.5000000000000000,  0.5000000000000000,  0.7500000000000000 ]
  mass: 15.999400
- symbol: O  # 25
  position: [  0.0000000000000000,  0.2500000000000000,  0.0000000000000000 ]
  mass: 15.999400
- symbol: O  # 26
  position: [  0.5000000000000000,  0.2500000000000000,  0.0000000000000000 ]
  mass: 15.999400
- symbol: O  # 27
  position: [  0.0000000000000000,  0.7500000000000000,  0.0000000000000000 ]
  mass: 15.999400
- symbol: O  # 28
  position: [  0.5000000000000000,  0.7500000000000000,  0.0000000000000000 ]
  mass: 15.999400
- symbol: O  # 29
  position: [  0.0000000000000000,  0.2500000000000000,  0.5000000000000000 ]
  mass: 15.999400
- symbol: O  # 30
  position: [  0.5000000000000000,  0.2500000000000000,  0.5000000000000000 ]
  mass: 15.999400
- symbol: O  # 31
  position: [  0.0000000000000000,  0.7500000000000000,  0.5000000000000000 ]
  mass: 15.999400
- symbol: O  # 32
  position: [  0.5000000000000000,  0.7500000000000000,  0.5000000000000000 ]
  mass: 15.999400
- symbol: Mg # 33
  position: [  0.0000000000000000,  0.0000000000000000,  0.0000000000000000 ]
  mass: 24.305000
- symbol: Mg # 34
  position: [  0.5000000000000000,  0.0000000000000000,  0.0000000000000000 ]
  mass: 24.305000
- symbol: Mg # 35
  position: [  0.0000000000000000,  0.5000000000000000,  0.0000000000000000 ]
  mass: 24.305000
- symbol: Mg # 36
  position: [  0.5000000000000000,  0.5000000000000000,  0.0000000000000000 ]
  mass: 24.305000
- symbol: Mg # 37
  position: [  0.0000000000000000,  0.0000000000000000,  0.5000000000000000 ]
  mass: 24.305000
- symbol: Mg # 38
  position: [  0.5000000000000000,  0.0000000000000000,  0.5000000000000000 ]
  mass: 24.305000
- symbol: Mg # 39
  position: [  0.0000000000000000,  0.5000000000000000,  0.5000000000000000 ]
  mass: 24.305000
- symbol: Mg # 40
  position: [  0.5000000000000000,  0.5000000000000000,  0.5000000000000000 ]
  mass: 24.305000
- symbol: Mg # 41
  position: [  0.0000000000000000,  0.2500000000000000,  0.2500000000000000 ]
  mass: 24.305000
- symbol: Mg # 42
  position: [  0.5000000000000000,  0.2500000000000000,  0.2500000000000000 ]
  mass: 24.305000
- symbol: Mg # 43
  position: [  0.0000000000000000,  0.7500000000000000,  0.2500000000000000 ]
  mass: 24.305000
- symbol: Mg # 44
  position: [  0.5000000000000000,  0.7500000000000000,  0.2500000000000000 ]
  mass: 24.305000
- symbol: Mg # 45
  position: [  0.0000000000000000,  0.2500000000000000,  0.7500000000000000 ]
  mass: 24.305000
- symbol: Mg # 46
  position: [  0.5000000000000000,  0.2500000000000000,  0.7500000000000000 ]
  mass: 24.305000
- symbol: Mg # 47
  position: [  0.0000000000000000,  0.7500000000000000,  0.7500000000000000 ]
  mass: 24.305000
- symbol: Mg # 48
  position: [  0.5000000000000000,  0.7500000000000000,  0.7500000000000000 ]
  mass: 24.305000
- symbol: Mg # 49
  position: [  0.2500000000000000,  0.0000000000000000,  0.2500000000000000 ]
  mass: 24.305000
- symbol: Mg # 50
  position: [  0.7500000000000000,  0.0000000000000000,  0.2500000000000000 ]
  mass: 24.305000
- symbol: Mg # 51
  position: [  0.2500000000000000,  0.5000000000000000,  0.2500000000000000 ]
  mass: 24.305000
- symbol: Mg # 52
  position: [  0.7500000000000000,  0.5000000000000000,  0.2500000000000000 ]
  mass: 24.305000
- symbol: Mg # 53
  position: [  0.2500000000000000,  0.0000000000000000,  0.7500000000000000 ]
  mass: 24.305000
- symbol: Mg # 54
  position: [  0.7500000000000000,  0.0000000000000000,  0.7500000000000000 ]
  mass: 24.305000
- symbol: Mg # 55
  position: [  0.2500000000000000,  0.5000000000000000,  0.7500000000000000 ]
  mass: 24.305000
- symbol: Mg # 56
  position: [  0.7500000000000000,  0.5000000000000000,  0.7500000000000000 ]
  mass: 24.305000
- symbol: Mg # 57
  position: [  0.2500000000000000,  0.2500000000000000,  0.0000000000000000 ]
  mass: 24.305000
- symbol: Mg # 58
  position: [  0.7500000000000000,  0.2500000000000000,  0.0000000000000000 ]
  mass: 24.305000
- symbol: Mg # 59
  position: [  0.2500000000000000,  0.7500000000000000,  0.0000000000000000 ]
  mass: 24.305000
- symbol: Mg # 60
  position: [  0.7500000000000000,  0.7500000000000000,  0.0000000000000000 ]
  mass: 24.305000
- symbol: Mg # 61
  position: [  0.2500000000000000,  0.2500000000000000,  0.5000000000000000 ]
  mass: 24.305000
- symbol: Mg # 62
  position: [  0.7500000000000000,  0.2500000000000000,  0.5000000000000000 ]
  mass: 24.305000
- symbol: Mg # 63
  position: [  0.2500000000000000,  0.7500000000000000,  0.5000000000000000 ]
  mass: 24.305000
- symbol: Mg # 64
  position: [  0.7500000000000000,  0.7500000000000000,  0.5000000000000000 ]
  mass: 24.305000