   8   8   0   0
  0.1755761E+02  0.5198186E-09  0.5198186E-09  0.5198186E-09  0.5000000E-15
  1.000000000000000E-004
  CAR 
 unknown system                          
     13.80511308    -40.20624453  301      3.58796460      1.00000000
    -40.206  0.0000E+00  0.0000E+00
    -40.026  0.0000E+00  0.0000E+00
    -39.846  0.0000E+00  0.0000E+00
    -39.666  0.0000E+00  0.0000E+00
    -39.486  0.0000E+00  0.0000E+00
    -39.306  0.0000E+00  0.0000E+00
    -39.126  0.0000E+00  0.0000E+00
    -38.946  0.0000E+00  0.0000E+00
    -38.766  0.0000E+00  0.0000E+00
    -38.586  0.0000E+00  0.0000E+00
    -38.406  0.0000E+00  0.0000E+00
    -38.226  0.0000E+00  0.0000E+00
    -38.046  0.0000E+00  0.0000E+00
    -37.866  0.0000E+00  0.0000E+00
    -37.686  0.6665E+01  0.1200E+01
    -37.506  0.0000E+00  0.1200E+01
    -37.326  0.0000E+00  0.1200E+01
    -37.146  0.0000E+00  0.1200E+01
    -36.966  0.0000E+00  0.1200E+01
    -36.786  0.0000E+00  0.1200E+01
    -36.605  0.0000E+00  0.1200E+01
    -36.425  0.0000E+00  0.1200E+01
    -36.245  0.0000E+00  0.1200E+01
    -36.065  0.0000E+00  0.1200E+01
    -35.885  0.0000E+00  0.1200E+01
    -35.705  0.0000E+00  0.1200E+01
    -35.525  0.0000E+00  0.1200E+01
    -35.345  0.0000E+00  0.1200E+01
    -35.165  0.0000E+00  0.1200E+01
    -34.985  0.0000E+00  0.1200E+01
    -34.805  0.0000E+00  0.1200E+01
    -34.625  0.0000E+00  0.1200E+01
    -34.445  0.0000E+00  0.1200E+01
    -34.265  0.0000E+00  0.1200E+01
    -34.085  0.0000E+00  0.1200E+01
    -33.905  0.0000E+00  0.1200E+01
    -33.725  0.0000E+00  0.1200E+01
    -33.545  0.0000E+00  0.1200E+01
    -33.365  0.0000E+00  0.1200E+01
    -33.185  0.0000E+00  0.1200E+01
    -33.005  0.0000E+00  0.1200E+01
    -32.825  0.0000E+00  0.1200E+01
    -32.645  0.0000E+00  0.1200E+01
    -32.465  0.0000E+00  0.1200E+01
    -32.285  0.0000E+00  0.1200E+01
    -32.105  0.0000E+00  0.1200E+01
    -31.925  0.0000E+00  0.1200E+01
    -31.744  0.0000E+00  0.1200E+01
    -31.564  0.0000E+00  0.1200E+01
    -31.384  0.0000E+00  0.1200E+01
    -31.204  0.0000E+00  0.1200E+01
    -31.024  0.0000E+00  0.1200E+01
    -30.844  0.0000E+00  0.1200E+01
    -30.664  0.0000E+00  0.1200E+01
    -30.484  0.0000E+00  0.1200E+01
    -30.304  0.0000E+00  0.1200E+01
    -30.124  0.0000E+00  0.1200E+01
    -29.944  0.0000E+00  0.1200E+01
    -29.764  0.0000E+00  0.1200E+01
    -29.584  0.0000E+00  0.1200E+01
    -29.404  0.0000E+00  0.1200E+01
    -29.224  0.0000E+00  0.1200E+01
    -29.044  0.0000E+00  0.1200E+01
    -28.864  0.0000E+00  0.1200E+01
    -28.684  0.0000E+00  0.1200E+01
    -28.504  0.0000E+00  0.1200E+01
    -28.324  0.0000E+00  0.1200E+01
    -28.144  0.0000E+00  0.1200E+01
    -27.964  0.0000E+00  0.1200E+01
    -27.784  0.0000E+00  0.1200E+01
    -27.604  0.0000E+00  0.1200E+01
    -27.424  0.0000E+00  0.1200E+01
    -27.244  0.0000E+00  0.1200E+01
    -27.063  0.0000E+00  0.1200E+01
    -26.883  0.0000E+00  0.1200E+01
    -26.703  0.0000E+00  0.1200E+01
    -26.523  0.0000E+00  0.1200E+01
    -26.343  0.0000E+00  0.1200E+01
    -26.163  0.0000E+00  0.1200E+01
    -25.983  0.0000E+00  0.1200E+01
    -25.803  0.0000E+00  0.1200E+01
    -25.623  0.0000E+00  0.1200E+01
    -25.443  0.0000E+00  0.1200E+01
    -25.263  0.0000E+00  0.1200E+01
    -25.083  0.0000E+00  0.1200E+01
    -24.903  0.0000E+00  0.1200E+01
    -24.723  0.0000E+00  0.1200E+01
    -24.543  0.0000E+00  0.1200E+01
    -24.363  0.0000E+00  0.1200E+01
    -24.183  0.0000E+00  0.1200E+01
    -24.003  0.0000E+00  0.1200E+01
    -23.823  0.0000E+00  0.1200E+01
    -23.643  0.0000E+00  0.1200E+01
    -23.463  0.0000E+00  0.1200E+01
    -23.283  0.0000E+00  0.1200E+01
    -23.103  0.0000E+00  0.1200E+01
    -22.923  0.0000E+00  0.1200E+01
    -22.743  0.0000E+00  0.1200E+01
    -22.563  0.0000E+00  0.1200E+01
    -22.382  0.0000E+00  0.1200E+01
    -22.202  0.0000E+00  0.1200E+01
    -22.022  0.0000E+00  0.1200E+01
    -21.842  0.0000E+00  0.1200E+01
    -21.662  0.0000E+00  0.1200E+01
    -21.482  0.0000E+00  0.1200E+01
    -21.302  0.0000E+00  0.1200E+01
    -21.122  0.0000E+00  0.1200E+01
    -20.942  0.0000E+00  0.1200E+01
    -20.762  0.0000E+00  0.1200E+01
    -20.582  0.0000E+00  0.1200E+01
    -20.402  0.0000E+00  0.1200E+01
    -20.222  0.0000E+00  0.1200E+01
    -20.042  0.0000E+00  0.1200E+01
    -19.862  0.0000E+00  0.1200E+01
    -19.682  0.0000E+00  0.1200E+01
    -19.502  0.0000E+00  0.1200E+01
    -19.322  0.0000E+00  0.1200E+01
    -19.142  0.0000E+00  0.1200E+01
    -18.962  0.0000E+00  0.1200E+01
    -18.782  0.0000E+00  0.1200E+01
    -18.602  0.0000E+00  0.1200E+01
    -18.422  0.0000E+00  0.1200E+01
    -18.242  0.0000E+00  0.1200E+01
    -18.062  0.0000E+00  0.1200E+01
    -17.882  0.0000E+00  0.1200E+01
    -17.702  0.0000E+00  0.1200E+01
    -17.521  0.0000E+00  0.1200E+01
    -17.341  0.0000E+00  0.1200E+01
    -17.161  0.0000E+00  0.1200E+01
    -16.981  0.0000E+00  0.1200E+01
    -16.801  0.0000E+00  0.1200E+01
    -16.621  0.0000E+00  0.1200E+01
    -16.441  0.0000E+00  0.1200E+01
    -16.261  0.0000E+00  0.1200E+01
    -16.081  0.0000E+00  0.1200E+01
    -15.901  0.0000E+00  0.1200E+01
    -15.721  0.0000E+00  0.1200E+01
    -15.541  0.0000E+00  0.1200E+01
    -15.361  0.0000E+00  0.1200E+01
    -15.181  0.0000E+00  0.1200E+01
    -15.001  0.0000E+00  0.1200E+01
    -14.821  0.0000E+00  0.1200E+01
    -14.641  0.0000E+00  0.1200E+01
    -14.461  0.0000E+00  0.1200E+01
    -14.281  0.0000E+00  0.1200E+01
    -14.101  0.0000E+00  0.1200E+01
    -13.921  0.0000E+00  0.1200E+01
    -13.741  0.0000E+00  0.1200E+01
    -13.561  0.0000E+00  0.1200E+01
    -13.381  0.0000E+00  0.1200E+01
    -13.201  0.0000E+00  0.1200E+01
    -13.021  0.0000E+00  0.1200E+01
    -12.840  0.0000E+00  0.1200E+01
    -12.660  0.0000E+00  0.1200E+01
    -12.480  0.0000E+00  0.1200E+01
    -12.300  0.0000E+00  0.1200E+01
    -12.120  0.0000E+00  0.1200E+01
    -11.940  0.0000E+00  0.1200E+01
    -11.760  0.0000E+00  0.1200E+01
    -11.580  0.0000E+00  0.1200E+01
    -11.400  0.0000E+00  0.1200E+01
    -11.220  0.0000E+00  0.1200E+01
    -11.040  0.0000E+00  0.1200E+01
    -10.860  0.0000E+00  0.1200E+01
    -10.680  0.0000E+00  0.1200E+01
    -10.500  0.0000E+00  0.1200E+01
    -10.320  0.0000E+00  0.1200E+01
    -10.140  0.0000E+00  0.1200E+01
     -9.960  0.0000E+00  0.1200E+01
     -9.780  0.0000E+00  0.1200E+01
     -9.600  0.0000E+00  0.1200E+01
     -9.420  0.0000E+00  0.1200E+01
     -9.240  0.8190E-09  0.1200E+01
     -9.060  0.0000E+00  0.1202E+01
     -8.880  0.0000E+00  0.1211E+01
     -8.700  0.0000E+00  0.1230E+01
     -8.520  0.0000E+00  0.1242E+01
     -8.340  0.9797E-08  0.1252E+01
     -8.160  0.2077E+00  0.1326E+01
     -7.979  0.5779E-09  0.1327E+01
     -7.799  0.6713E-01  0.1395E+01
     -7.619  0.4166E+00  0.1511E+01
     -7.439  0.2578E+00  0.1595E+01
     -7.259  0.0000E+00  0.1600E+01
     -7.079  0.0000E+00  0.1600E+01
     -6.899  0.0000E+00  0.1600E+01
     -6.719  0.0000E+00  0.1600E+01
     -6.539  0.0000E+00  0.1600E+01
     -6.359  0.0000E+00  0.1600E+01
     -6.179  0.0000E+00  0.1600E+01
     -5.999  0.0000E+00  0.1600E+01
     -5.819  0.0000E+00  0.1600E+01
     -5.639  0.0000E+00  0.1600E+01
     -5.459  0.0000E+00  0.1600E+01
     -5.279  0.0000E+00  0.1600E+01
     -5.099  0.0000E+00  0.1600E+01
     -4.919  0.0000E+00  0.1600E+01
     -4.739  0.0000E+00  0.1600E+01
     -4.559  0.0000E+00  0.1600E+01
     -4.379  0.0000E+00  0.1600E+01
     -4.199  0.0000E+00  0.1600E+01
     -4.019  0.0000E+00  0.1600E+01
     -3.839  0.0000E+00  0.1600E+01
     -3.659  0.0000E+00  0.1600E+01
     -3.479  0.0000E+00  0.1600E+01
     -3.298  0.0000E+00  0.1600E+01
     -3.118  0.0000E+00  0.1600E+01
     -2.938  0.0000E+00  0.1600E+01
     -2.758  0.0000E+00  0.1600E+01
     -2.578  0.0000E+00  0.1600E+01
     -2.398  0.0000E+00  0.1600E+01
     -2.218  0.0000E+00  0.1600E+01
     -2.038  0.0000E+00  0.1600E+01
     -1.858  0.0000E+00  0.1600E+01
     -1.678  0.0000E+00  0.1600E+01
     -1.498  0.0000E+00  0.1600E+01
     -1.318  0.0000E+00  0.1606E+01
     -1.138  0.0000E+00  0.1606E+01
     -0.958  0.2080E+00  0.1644E+01
     -0.778  0.1532E-02  0.1682E+01
     -0.598  0.2006E+00  0.1722E+01
     -0.418  0.0000E+00  0.1742E+01
     -0.238  0.6768E+00  0.1902E+01
     -0.058  0.0000E+00  0.1902E+01
      0.122  0.0000E+00  0.1902E+01
      0.302  0.1041E+00  0.1939E+01
      0.482  0.2083E+00  0.2014E+01
      0.662  0.6914E-01  0.2027E+01
      0.842  0.0000E+00  0.2027E+01
      1.022  0.0000E+00  0.2036E+01
      1.202  0.4312E-01  0.2072E+01
      1.383  0.2083E+00  0.2158E+01
      1.563  0.1041E+00  0.2233E+01
      1.743  0.1566E-11  0.2233E+01
      1.923  0.2083E+00  0.2280E+01
      2.103  0.2261E-01  0.2378E+01
      2.283  0.1917E+00  0.2464E+01
      2.463  0.1058E-01  0.2507E+01
      2.643  0.2083E+00  0.2570E+01
      2.823  0.3079E+00  0.2663E+01
      3.003  0.0000E+00  0.2733E+01
      3.183  0.2360E+00  0.2775E+01
      3.363  0.7287E-05  0.2777E+01
      3.543  0.2604E-01  0.2800E+01
      3.723  0.0000E+00  0.2800E+01
      3.903  0.0000E+00  0.2800E+01
      4.083  0.0000E+00  0.2800E+01
      4.263  0.0000E+00  0.2800E+01
      4.443  0.0000E+00  0.2800E+01
      4.623  0.0000E+00  0.2800E+01
      4.803  0.0000E+00  0.2800E+01
      4.983  0.0000E+00  0.2800E+01
      5.163  0.0000E+00  0.2800E+01
      5.343  0.0000E+00  0.2800E+01
      5.523  0.0000E+00  0.2800E+01
      5.703  0.0000E+00  0.2800E+01
      5.883  0.0000E+00  0.2800E+01
      6.063  0.0000E+00  0.2800E+01
      6.244  0.2604E-01  0.2805E+01
      6.424  0.0000E+00  0.2805E+01
      6.604  0.0000E+00  0.2805E+01
      6.784  0.0000E+00  0.2805E+01
      6.964  0.0000E+00  0.2814E+01
      7.144  0.8678E-02  0.2816E+01
      7.324  0.1382E+00  0.2841E+01
      7.504  0.0000E+00  0.2853E+01
      7.684  0.1596E-12  0.2853E+01
      7.864  0.4166E+00  0.2933E+01
      8.044  0.1243E-01  0.2941E+01
      8.224  0.1156E-15  0.2948E+01
      8.404  0.6943E-01  0.2970E+01
      8.584  0.0000E+00  0.2980E+01
      8.764  0.4687E+00  0.3102E+01
      8.944  0.2250E-06  0.3139E+01
      9.124  0.2466E+00  0.3230E+01
      9.304  0.2083E+00  0.3280E+01
      9.484  0.1216E-01  0.3282E+01
      9.664  0.0000E+00  0.3317E+01
      9.844  0.1240E-02  0.3317E+01
     10.024  0.6443E-04  0.3392E+01
     10.204  0.2083E+00  0.3486E+01
     10.384  0.8649E-01  0.3502E+01
     10.564  0.2083E+00  0.3539E+01
     10.744  0.0000E+00  0.3558E+01
     10.925  0.0000E+00  0.3558E+01
     11.105  0.1041E+00  0.3577E+01
     11.285  0.6943E-01  0.3589E+01
     11.465  0.0000E+00  0.3600E+01
     11.645  0.0000E+00  0.3600E+01
     11.825  0.0000E+00  0.3600E+01
     12.005  0.0000E+00  0.3600E+01
     12.185  0.0000E+00  0.3600E+01
     12.365  0.0000E+00  0.3600E+01
     12.545  0.0000E+00  0.3600E+01
     12.725  0.0000E+00  0.3600E+01
     12.905  0.0000E+00  0.3600E+01
     13.085  0.0000E+00  0.3600E+01
     13.265  0.0000E+00  0.3600E+01
     13.445  0.0000E+00  0.3600E+01
     13.625  0.0000E+00  0.3600E+01
     13.805  0.0000E+00  0.3600E+01
