       N       E                     dE             d eps       ncg     rms          rms(c)
DAV:   1     0.459896395743E+03    0.45990E+03   -0.34671E+04   888   0.153E+03
DAV:   2    -0.167986796046E+01   -0.46158E+03   -0.44742E+03   848   0.386E+02
DAV:   3    -0.366196124740E+02   -0.34940E+02   -0.34693E+02   868   0.104E+02
DAV:   4    -0.376946408111E+02   -0.10750E+01   -0.10729E+01   868   0.160E+01
DAV:   5    -0.377213975539E+02   -0.26757E-01   -0.26750E-01   892   0.254E+00    0.845E+00
DAV:   6    -0.363936844100E+02    0.13277E+01   -0.26398E+00   760   0.656E+00    0.625E+00
DAV:   7    -0.362343893799E+02    0.15930E+00   -0.75684E-01   920   0.335E+00    0.358E+00
DAV:   8    -0.362274669436E+02    0.69224E-02   -0.49530E-02   780   0.137E+00    0.106E+00
DAV:   9    -0.362266196459E+02    0.84730E-03   -0.25207E-03   876   0.271E-01    0.296E-01
DAV:  10    -0.362266483303E+02   -0.28684E-04   -0.58928E-04   900   0.112E-01    0.175E-02
DAV:  11    -0.362266440129E+02    0.43174E-05   -0.29389E-05   820   0.295E-02    0.233E-02
DAV:  12    -0.362266432476E+02    0.76535E-06   -0.20082E-06   872   0.704E-03    0.287E-03
DAV:  13    -0.362266431862E+02    0.61320E-07   -0.17634E-07   872   0.208E-03    0.133E-03
DAV:  14    -0.362266431545E+02    0.31747E-07   -0.10829E-08   772   0.461E-04    0.165E-03
DAV:  15    -0.362266431862E+02   -0.31739E-07   -0.65564E-09   696   0.403E-04    0.369E-04
DAV:  16    -0.362266431797E+02    0.64847E-08   -0.11239E-10   420   0.700E-05
   1 F= -.36226643E+02 E0= -.36226643E+02  d E =-.362266E+02
