       N       E                     dE             d eps       ncg     rms          rms(c)
DAV:   1     0.429852414466E+04    0.42985E+04   -0.26679E+05  3888   0.166E+03
DAV:   2     0.101187538387E+03   -0.41973E+04   -0.40446E+04  3824   0.430E+02
DAV:   3    -0.282500478774E+03   -0.38369E+03   -0.38007E+03  3896   0.119E+02
DAV:   4    -0.300833604955E+03   -0.18333E+02   -0.18268E+02  3656   0.219E+01
DAV:   5    -0.301665991655E+03   -0.83239E+00   -0.83171E+00  4000   0.473E+00    0.247E+01
DAV:   6    -0.291182704548E+03    0.10483E+02   -0.21086E+01  3560   0.700E+00    0.178E+01
DAV:   7    -0.289913999935E+03    0.12687E+01   -0.80087E+00  3776   0.403E+00    0.894E+00
DAV:   8    -0.289835896630E+03    0.78103E-01   -0.72596E-01  3484   0.173E+00    0.237E+00
DAV:   9    -0.289830804411E+03    0.50922E-02   -0.26807E-02  3672   0.347E-01    0.494E-01
DAV:  10    -0.289831253672E+03   -0.44926E-03   -0.63264E-03  3632   0.134E-01    0.229E-01
DAV:  11    -0.289830993962E+03    0.25971E-03   -0.10095E-03  3560   0.621E-02    0.217E-02
DAV:  12    -0.289830996049E+03   -0.20869E-05   -0.31326E-05  3668   0.112E-02    0.222E-02
DAV:  13    -0.289830998851E+03   -0.28020E-05   -0.61181E-06  3640   0.509E-03    0.285E-03
DAV:  14    -0.289830998537E+03    0.31454E-06   -0.18154E-06  3524   0.263E-03    0.290E-03
DAV:  15    -0.289830998482E+03    0.54322E-07   -0.62884E-08  3096   0.501E-04    0.280E-03
DAV:  16    -0.289830998523E+03   -0.40251E-07   -0.35290E-08  2848   0.309E-04    0.145E-03
DAV:  17    -0.289830998329E+03    0.19311E-06   -0.95826E-09  2032   0.360E-04    0.150E-03
DAV:  18    -0.289830998362E+03   -0.32989E-07   -0.81191E-09  1976   0.132E-04    0.121E-03
DAV:  19    -0.289830998364E+03   -0.10623E-08   -0.13915E-09  1944   0.730E-05
   1 F= -.28983100E+03 E0= -.28983100E+03  d E =-.164449E-70
