 vasp.5.3.5 31Mar14 (build Nov 07 2014 11:36:17) complex                        
  
 executed on             LinuxIFC date 2015.10.15  02:20:11
 running on   20 total cores
 distrk:  each k-point on   20 cores,    1 groups
 distr:  one band on NCORES_PER_BAND=   5 cores,    4 groups


--------------------------------------------------------------------------------------------------------


 INCAR:
 POTCAR:    PAW_PBE Mg_pv 13Apr2007               
 POTCAR:    PAW_PBE S 06Sep2000                   
 POTCAR:    PAW_PBE Mg_pv 13Apr2007               
   VRHFIN =Mg: p6s2                                                             
   LEXCH  = PE                                                                  
   EATOM  =  1056.7344 eV,   77.6678 Ry                                         
                                                                                
   TITEL  = PAW_PBE Mg_pv 13Apr2007                                             
   LULTRA =        F    use ultrasoft PP ?                                      
   IUNSCR =        1    unscreen: 0-lin 1-nonlin 2-no                           
   RPACOR =    1.500    partial core radius                                     
   POMASS =   24.305; ZVAL   =    8.000    mass and valenz                      
   RCORE  =    2.000    outmost cutoff radius                                   
   RWIGS  =    2.000; RWIGS  =    1.058    wigner-seitz radius (au A)           
   ENMAX  =  403.929; ENMIN  =  302.947 eV                                      
   RCLOC  =    1.506    cutoff for local pot                                    
   LCOR   =        T    correct aug charges                                     
   LPAW   =        T    paw PP                                                  
   EAUG   =  758.780                                                            
   DEXC   =    0.000                                                            
   RMAX   =    2.045    core radius for proj-oper                               
   RAUG   =    1.300    factor for augmentation sphere                          
   RDEP   =    2.025    radius for radial grids                                 
   RDEPT  =    1.557    core radius for aug-charge                              
                                                                                
   Atomic configuration                                                         
    5 entries                                                                   
     n  l   j            E        occ.                                          
     1  0  0.50     -1259.6230   2.0000                                         
     2  0  0.50       -79.8442   2.0000                                         
     2  1  1.50       -46.6121   6.0000                                         
     3  0  0.50        -4.7055   2.0000                                         
     3  2  1.50        -1.3606   0.0000                                         
   Description                                                                  
     l       E           TYP  RCUT    TYP  RCUT                                 
     1    -46.6121073     23  1.600                                             
     1      2.7211652     23  1.600                                             
     0     -4.7054661     23  2.000                                             
     0     61.2262170     23  2.000                                             
     2     -1.3605826     23  2.000                                             
  local pseudopotential read in
  partial core-charges read in
  partial kinetic energy density read in
  atomic valenz-charges read in
  non local Contribution for L=           1  read in
    real space projection operators read in
  non local Contribution for L=           1  read in
    real space projection operators read in
  non local Contribution for L=           0  read in
    real space projection operators read in
  non local Contribution for L=           0  read in
    real space projection operators read in
  non local Contribution for L=           2  read in
    real space projection operators read in
    PAW grid and wavefunctions read in
 
   number of l-projection  operators is LMAX  =           5
   number of lm-projection operators is LMMAX =          13
 
 POTCAR:    PAW_PBE S 06Sep2000                   
   VRHFIN =S : s2p4                                                             
   LEXCH  = PE                                                                  
   EATOM  =   276.8230 eV,   20.3459 Ry                                         
                                                                                
   TITEL  = PAW_PBE S 06Sep2000                                                 
   LULTRA =        F    use ultrasoft PP ?                                      
   IUNSCR =        1    unscreen: 0-lin 1-nonlin 2-no                           
   RPACOR =    1.500    partial core radius                                     
   POMASS =   32.066; ZVAL   =    6.000    mass and valenz                      
   RCORE  =    1.900    outmost cutoff radius                                   
   RWIGS  =    2.200; RWIGS  =    1.164    wigner-seitz radius (au A)           
   ENMAX  =  258.689; ENMIN  =  194.016 eV                                      
   ICORE  =        2    local potential                                         
   LCOR   =        T    correct aug charges                                     
   LPAW   =        T    paw PP                                                  
   EAUG   =  335.092                                                            
   DEXC   =    0.000                                                            
   RMAX   =    1.942    core radius for proj-oper                               
   RAUG   =    1.300    factor for augmentation sphere                          
   RDEP   =    1.954    radius for radial grids                                 
   RDEPT  =    1.744    core radius for aug-charge                              
                                                                                
   Atomic configuration                                                         
    6 entries                                                                   
     n  l   j            E        occ.                                          
     1  0  0.50     -2405.8406   2.0000                                         
     2  0  0.50      -211.7007   2.0000                                         
     2  1  1.50      -156.4958   6.0000                                         
     3  0  0.50       -17.2562   2.0000                                         
     3  1  0.50        -7.0085   4.0000                                         
     3  2  1.50        -6.8029   0.0000                                         
   Description                                                                  
     l       E           TYP  RCUT    TYP  RCUT                                 
     0    -17.2561641     23  1.900                                             
     0    -15.8743224     23  1.900                                             
     1     -7.0085400     23  1.900                                             
     1     -2.7779785     23  1.900                                             
     2     -6.8029130     23  1.900                                             
  local pseudopotential read in
  partial core-charges read in
  partial kinetic energy density read in
  atomic valenz-charges read in
  non local Contribution for L=           0  read in
    real space projection operators read in
  non local Contribution for L=           0  read in
    real space projection operators read in
  non local Contribution for L=           1  read in
    real space projection operators read in
  non local Contribution for L=           1  read in
    real space projection operators read in
    PAW grid and wavefunctions read in
 
   number of l-projection  operators is LMAX  =           4
   number of lm-projection operators is LMMAX =           8
 

 ----------------------------------------------------------------------------- 
|                                                                             |
|  ADVICE TO THIS USER RUNNING 'VASP/VAMP'   (HEAR YOUR MASTER'S VOICE ...):  |
|                                                                             |
|      You have a (more or less) 'large supercell' and for larger cells       |
|      it might be more efficient to use real space projection opertators     |
|      So try LREAL= Auto  in the INCAR   file.                               |
|      Mind: At the moment your POTCAR file does not contain real space       |
|       projectors, and has to be modified,  BUT if you                       |
|      want to do an extremely  accurate calculation you might also keep the  |
|      reciprocal projection scheme          (i.e. LREAL=.FALSE.)             |
|                                                                             |
 ----------------------------------------------------------------------------- 


 ----------------------------------------------------------------------------- 
|                                                                             |
|  ADVICE TO THIS USER RUNNING 'VASP/VAMP'   (HEAR YOUR MASTER'S VOICE ...):  |
|                                                                             |
|      You enforced a specific xc-type in the INCAR file,                     |
|      a different type was found on the POTCAR file                          |
|          I HOPE YOU KNOW, WHAT YOU ARE  DOING                               |
|                                                                             |
 ----------------------------------------------------------------------------- 

  PAW_PBE Mg_pv 13Apr2007               :
 energy of atom  1       EATOM=-1056.7344
 kinetic energy error for atom=    0.0336 (will be added to EATOM!!)
  PAW_PBE S 06Sep2000                   :
 energy of atom  2       EATOM= -276.8230
 kinetic energy error for atom=    0.0015 (will be added to EATOM!!)
 
 
 POSCAR:  Mg S                                   
  positions in direct lattice
  No initial velocities read in
 exchange correlation table for  LEXCH =       14
   RHO(1)=    0.500       N(1)  =     2000
   RHO(2)=  100.500       N(2)  =     4000
 


--------------------------------------------------------------------------------------------------------


 ion  position               nearest neighbor table
   1  0.001  0.000  0.000-  33 2.58  49 2.59  53 2.59  57 2.59  59 2.59  34 2.60
   2  0.500  0.000  0.000-  33 2.59  34 2.59  50 2.59  54 2.59  58 2.59  60 2.59
   3  0.000  0.500  0.000-  35 2.59  36 2.59  51 2.59  55 2.59  57 2.59  59 2.59
   4  0.500  0.500  0.000-  35 2.59  36 2.59  52 2.59  56 2.59  58 2.59  60 2.59
   5  0.000  0.000  0.500-  37 2.59  38 2.59  49 2.59  53 2.59  61 2.59  63 2.59
   6  0.500  0.000  0.500-  37 2.59  38 2.59  50 2.59  54 2.59  62 2.59  64 2.59
   7  0.000  0.500  0.500-  39 2.59  40 2.59  51 2.59  55 2.59  61 2.59  63 2.59
   8  0.500  0.500  0.500-  39 2.59  40 2.59  52 2.59  56 2.59  62 2.59  64 2.59
   9  0.000  0.250  0.250-  41 2.59  42 2.59  49 2.59  51 2.59  57 2.59  61 2.59
  10  0.500  0.250  0.250-  41 2.59  42 2.59  50 2.59  52 2.59  58 2.59  62 2.59
  11  0.000  0.750  0.250-  43 2.59  44 2.59  49 2.59  51 2.59  59 2.59  63 2.59
  12  0.500  0.750  0.250-  43 2.59  44 2.59  50 2.59  52 2.59  60 2.59  64 2.59
  13  0.000  0.250  0.750-  45 2.59  46 2.59  53 2.59  55 2.59  57 2.59  61 2.59
  14  0.500  0.250  0.750-  45 2.59  46 2.59  54 2.59  56 2.59  58 2.59  62 2.59
  15  0.000  0.750  0.750-  47 2.59  48 2.59  53 2.59  55 2.59  59 2.59  63 2.59
  16  0.500  0.750  0.750-  47 2.59  48 2.59  54 2.59  56 2.59  60 2.59  64 2.59
  17  0.250  0.000  0.250-  33 2.59  37 2.59  41 2.59  43 2.59  49 2.59  50 2.59
  18  0.750  0.000  0.250-  34 2.59  38 2.59  42 2.59  44 2.59  49 2.59  50 2.59
  19  0.250  0.500  0.250-  35 2.59  39 2.59  41 2.59  43 2.59  51 2.59  52 2.59
  20  0.750  0.500  0.250-  36 2.59  40 2.59  42 2.59  44 2.59  51 2.59  52 2.59
  21  0.250  0.000  0.750-  33 2.59  37 2.59  45 2.59  47 2.59  53 2.59  54 2.59
  22  0.750  0.000  0.750-  34 2.59  38 2.59  46 2.59  48 2.59  53 2.59  54 2.59
  23  0.250  0.500  0.750-  35 2.59  39 2.59  45 2.59  47 2.59  55 2.59  56 2.59
  24  0.750  0.500  0.750-  36 2.59  40 2.59  46 2.59  48 2.59  55 2.59  56 2.59
  25  0.250  0.250  0.000-  33 2.59  35 2.59  41 2.59  45 2.59  57 2.59  58 2.59
  26  0.750  0.250  0.000-  34 2.59  36 2.59  42 2.59  46 2.59  57 2.59  58 2.59
  27  0.250  0.750  0.000-  33 2.59  35 2.59  43 2.59  47 2.59  59 2.59  60 2.59
  28  0.750  0.750  0.000-  34 2.59  36 2.59  44 2.59  48 2.59  59 2.59  60 2.59
  29  0.250  0.250  0.500-  37 2.59  39 2.59  41 2.59  45 2.59  61 2.59  62 2.59
  30  0.750  0.250  0.500-  38 2.59  40 2.59  42 2.59  46 2.59  61 2.59  62 2.59
  31  0.250  0.750  0.500-  37 2.59  39 2.59  43 2.59  47 2.59  63 2.59  64 2.59
  32  0.750  0.750  0.500-  38 2.59  40 2.59  44 2.59  48 2.59  63 2.59  64 2.59
  33  0.250  0.000  0.000-   1 2.58   2 2.59  17 2.59  21 2.59  25 2.59  27 2.59
  34  0.750  0.000  0.000-   2 2.59  18 2.59  22 2.59  26 2.59  28 2.59   1 2.60
  35  0.250  0.500  0.000-   3 2.59   4 2.59  19 2.59  23 2.59  25 2.59  27 2.59
  36  0.750  0.500  0.000-   3 2.59   4 2.59  20 2.59  24 2.59  26 2.59  28 2.59
  37  0.250  0.000  0.500-   5 2.59   6 2.59  17 2.59  21 2.59  29 2.59  31 2.59
  38  0.750  0.000  0.500-   5 2.59   6 2.59  18 2.59  22 2.59  30 2.59  32 2.59
  39  0.250  0.500  0.500-   7 2.59   8 2.59  19 2.59  23 2.59  29 2.59  31 2.59
  40  0.750  0.500  0.500-   7 2.59   8 2.59  20 2.59  24 2.59  30 2.59  32 2.59
  41  0.250  0.250  0.250-   9 2.59  10 2.59  17 2.59  19 2.59  25 2.59  29 2.59
  42  0.750  0.250  0.250-   9 2.59  10 2.59  18 2.59  20 2.59  26 2.59  30 2.59
  43  0.250  0.750  0.250-  11 2.59  12 2.59  17 2.59  19 2.59  27 2.59  31 2.59
  44  0.750  0.750  0.250-  11 2.59  12 2.59  18 2.59  20 2.59  28 2.59  32 2.59
  45  0.250  0.250  0.750-  13 2.59  14 2.59  21 2.59  23 2.59  25 2.59  29 2.59
  46  0.750  0.250  0.750-  13 2.59  14 2.59  22 2.59  24 2.59  26 2.59  30 2.59
  47  0.250  0.750  0.750-  15 2.59  16 2.59  21 2.59  23 2.59  27 2.59  31 2.59
  48  0.750  0.750  0.750-  15 2.59  16 2.59  22 2.59  24 2.59  28 2.59  32 2.59
  49  0.000  0.000  0.250-   5 2.59   9 2.59  11 2.59  17 2.59  18 2.59   1 2.59
  50  0.500  0.000  0.250-   2 2.59   6 2.59  10 2.59  12 2.59  17 2.59  18 2.59
  51  0.000  0.500  0.250-   3 2.59   7 2.59   9 2.59  11 2.59  19 2.59  20 2.59
  52  0.500  0.500  0.250-   4 2.59   8 2.59  10 2.59  12 2.59  19 2.59  20 2.59
  53  0.000  0.000  0.750-   5 2.59  13 2.59  15 2.59  21 2.59  22 2.59   1 2.59
  54  0.500  0.000  0.750-   2 2.59   6 2.59  14 2.59  16 2.59  21 2.59  22 2.59
  55  0.000  0.500  0.750-   3 2.59   7 2.59  13 2.59  15 2.59  23 2.59  24 2.59
  56  0.500  0.500  0.750-   4 2.59   8 2.59  14 2.59  16 2.59  23 2.59  24 2.59
  57  0.000  0.250  0.000-   3 2.59   9 2.59  13 2.59  25 2.59  26 2.59   1 2.59
  58  0.500  0.250  0.000-   2 2.59   4 2.59  10 2.59  14 2.59  25 2.59  26 2.59
  59  0.000  0.750  0.000-   3 2.59  11 2.59  15 2.59  27 2.59  28 2.59   1 2.59
  60  0.500  0.750  0.000-   2 2.59   4 2.59  12 2.59  16 2.59  27 2.59  28 2.59
  61  0.000  0.250  0.500-   5 2.59   7 2.59   9 2.59  13 2.59  29 2.59  30 2.59
  62  0.500  0.250  0.500-   6 2.59   8 2.59  10 2.59  14 2.59  29 2.59  30 2.59
  63  0.000  0.750  0.500-   5 2.59   7 2.59  11 2.59  15 2.59  31 2.59  32 2.59
  64  0.500  0.750  0.500-   6 2.59   8 2.59  12 2.59  16 2.59  31 2.59  32 2.59
 
  LATTYP: Found a simple cubic cell.
 ALAT       =    10.3619456600
  
  Lattice vectors:
  
 A1 = (  10.3619456600,   0.0000000000,   0.0000000000)
 A2 = (   0.0000000000,  10.3619456600,   0.0000000000)
 A3 = (   0.0000000000,   0.0000000000,  10.3619456600)


Analysis of symmetry for initial positions (statically):
=====================================================================
 Subroutine PRICEL returns:
 Original cell was already a primitive cell.
 

 Routine SETGRP: Setting up the symmetry group for a 
 simple cubic supercell.


 Subroutine GETGRP returns: Found  8 space group operations
 (whereof  8 operations were pure point group operations)
 out of a pool of 48 trial point group operations.


The static configuration has the point symmetry C_4v.


Analysis of symmetry for dynamics (positions and initial velocities):
=====================================================================
 Subroutine PRICEL returns:
 Original cell was already a primitive cell.
 

 Routine SETGRP: Setting up the symmetry group for a 
 simple cubic supercell.


 Subroutine GETGRP returns: Found  8 space group operations
 (whereof  8 operations were pure point group operations)
 out of a pool of 48 trial point group operations.


The dynamic configuration has the point symmetry C_4v.
 
 
 KPOINTS: Automatic mesh                          

Automatic generation of k-mesh.
Space group operators:
 irot       det(A)        alpha          n_x          n_y          n_z        tau_x        tau_y        tau_z
    1     1.000000     0.000000     1.000000     0.000000     0.000000     0.000000     0.000000     0.000000
    2    -1.000000   180.000000     0.000000     0.707107     0.707107     0.000000     0.000000     0.000000
    3    -1.000000   180.000000     0.000000     0.000000     1.000000     0.000000     0.000000     0.000000
    4     1.000000    90.000000    -1.000000     0.000000     0.000000     0.000000     0.000000     0.000000
    5     1.000000   180.000000     1.000000     0.000000     0.000000     0.000000     0.000000     0.000000
    6     1.000000    90.000000     1.000000     0.000000     0.000000     0.000000     0.000000     0.000000
    7    -1.000000   180.000000     0.000000     1.000000     0.000000     0.000000     0.000000     0.000000
    8    -1.000000   180.000000     0.000000    -0.707107     0.707107     0.000000     0.000000     0.000000
 
 Subroutine IBZKPT returns following result:
 ===========================================
 
 Found      6 irreducible k-points:
 
 Following reciprocal coordinates:
            Coordinates               Weight
  0.000000  0.000000  0.000000      1.000000
  0.500000  0.000000  0.000000      1.000000
  0.000000  0.500000  0.000000      2.000000
  0.500000  0.500000  0.000000      2.000000
  0.000000  0.500000  0.500000      1.000000
  0.500000  0.500000  0.500000      1.000000
 
 Following cartesian coordinates:
            Coordinates               Weight
  0.000000  0.000000  0.000000      1.000000
  0.048253  0.000000  0.000000      1.000000
  0.000000  0.048253  0.000000      2.000000
  0.048253  0.048253  0.000000      2.000000
  0.000000  0.048253  0.048253      1.000000
  0.048253  0.048253  0.048253      1.000000
 


--------------------------------------------------------------------------------------------------------




 Dimension of arrays:
   k-points           NKPTS =      6   k-points in BZ     NKDIM =      6   number of bands    NBANDS=    268
   number of dos      NEDOS =    301   number of ions     NIONS =     64
   non local maximal  LDIM  =      5   non local SUM 2l+1 LMDIM =     13
   total plane-waves  NPLWV = 512000
   max r-space proj   IRMAX =      1   max aug-charges    IRDMAX= 116174
   dimension x,y,z NGX =    80 NGY =   80 NGZ =   80
   dimension x,y,z NGXF=   160 NGYF=  160 NGZF=  160
   support grid    NGXF=   320 NGYF=  320 NGZF=  320
   ions per type =              32  32
 NGX,Y,Z   is equivalent  to a cutoff of  12.84, 12.84, 12.84 a.u.
 NGXF,Y,Z  is equivalent  to a cutoff of  25.67, 25.67, 25.67 a.u.


 I would recommend the setting:
   dimension x,y,z NGX =    77 NGY =   77 NGZ =   77
 SYSTEM =  unknown system                          
 POSCAR =   Mg S                                   

 Startparameter for this run:
   NWRITE =      2    write-flag & timer
   PREC   = accura    normal or accurate (medium, high low for compatibility)
   ISTART =      0    job   : 0-new  1-cont  2-samecut
   ICHARG =      2    charge: 1-file 2-atom 10-const
   ISPIN  =      1    spin polarized calculation?
   LNONCOLLINEAR =      F non collinear calculations
   LSORBIT =      F    spin-orbit coupling
   INIWAV =      1    electr: 0-lowe 1-rand  2-diag
   LASPH  =      F    aspherical Exc in radial PAW
   METAGGA=      F    non-selfconsistent MetaGGA calc.

 Electronic Relaxation 1
   ENCUT  =  525.1 eV  38.59 Ry    6.21 a.u.  19.36 19.36 19.36*2*pi/ulx,y,z
   ENINI  =  525.1     initial cutoff
   ENAUG  =  758.8 eV  augmentation charge cutoff
   NELM   =     60;   NELMIN=  5; NELMDL= -5     # of ELM steps 
   EDIFF  = 0.1E-07   stopping-criterion for ELM
   LREAL  =      F    real-space projection
   NLSPLINE    = F    spline interpolate recip. space projectors
   LCOMPAT=      F    compatible to vasp.4.4
   GGA_COMPAT  = T    GGA compatible to vasp.4.4-vasp.4.6
   LMAXPAW     = -100 max onsite density
   LMAXMIX     =    2 max onsite mixed and CHGCAR
   VOSKOWN=      0    Vosko Wilk Nusair interpolation
   ROPT   =    0.00000   0.00000
 Ionic relaxation
   EDIFFG = 0.1E-06   stopping-criterion for IOM
   NSW    =      0    number of steps for IOM
   NBLOCK =      1;   KBLOCK =      1    inner block; outer block 
   IBRION =     -1    ionic relax: 0-MD 1-quasi-New 2-CG
   NFREE  =      0    steps in history (QN), initial steepest desc. (CG)
   ISIF   =      2    stress and relaxation
   IWAVPR =     10    prediction:  0-non 1-charg 2-wave 3-comb
   ISYM   =      2    0-nonsym 1-usesym 2-fastsym
   LCORR  =      T    Harris-Foulkes like correction to forces

   POTIM  = 0.5000    time-step for ionic-motion
   TEIN   =    0.0    initial temperature
   TEBEG  =    0.0;   TEEND  =   0.0 temperature during run
   SMASS  =  -3.00    Nose mass-parameter (am)
   estimated Nose-frequenzy (Omega)   =  0.10E-29 period in steps =****** mass=  -0.245E-26a.u.
   SCALEE = 1.0000    scale energy and forces
   NPACO  =    256;   APACO  = 16.0  distance and # of slots for P.C.
   PSTRESS=    0.0 pullay stress

  Mass of Ions in am
   POMASS =  24.30 32.07
  Ionic Valenz
   ZVAL   =   8.00  6.00
  Atomic Wigner-Seitz radii
   RWIGS  =  -1.00 -1.00
  virtual crystal weights 
   VCA    =   1.00  1.00
   NELECT =     448.0000    total number of electrons
   NUPDOWN=      -1.0000    fix difference up-down

 DOS related values:
   EMIN   =  10.00;   EMAX   =-10.00  energy-range for DOS
   EFERMI =   0.00
   ISMEAR =     0;   SIGMA  =   0.01  broadening in eV -4-tet -1-fermi 0-gaus

 Electronic relaxation 2 (details)
   IALGO  =     38    algorithm
   LDIAG  =      T    sub-space diagonalisation (order eigenvalues)
   LSUBROT=      F    optimize rotation matrix (better conditioning)
   TURBO    =      0    0=normal 1=particle mesh
   IRESTART =      0    0=no restart 2=restart with 2 vectors
   NREBOOT  =      0    no. of reboots
   NMIN     =      0    reboot dimension
   EREF     =   0.00    reference energy to select bands
   IMIX   =      4    mixing-type and parameters
     AMIX     =   0.40;   BMIX     =  1.00
     AMIX_MAG =   1.60;   BMIX_MAG =  1.00
     AMIN     =   0.10
     WC   =   100.;   INIMIX=   1;  MIXPRE=   1;  MAXMIX= -45

 Intra band minimization:
   WEIMIN = 0.0000     energy-eigenvalue tresh-hold
   EBREAK =  0.93E-11  absolut break condition
   DEPER  =   0.30     relativ break condition  

   TIME   =   0.40     timestep for ELM

  volume/ion in A,a.u.               =      17.38       117.31
  Fermi-wavevector in a.u.,A,eV,Ry     =   1.208907  2.284503 19.884315  1.461456
  Thomas-Fermi vector in A             =   2.344500
 
 Write flags
   LWAVE  =      F    write WAVECAR
   LCHARG =      F    write CHGCAR
   LVTOT  =      F    write LOCPOT, total local potential
   LVHAR  =      F    write LOCPOT, Hartree potential only
   LELF   =      F    write electronic localiz. function (ELF)
   LORBIT =      0    0 simple, 1 ext, 2 COOP (PROOUT)


 Dipole corrections
   LMONO  =      F    monopole corrections only (constant potential shift)
   LDIPOL =      F    correct potential (dipole corrections)
   IDIPOL =      0    1-x, 2-y, 3-z, 4-all directions 
   EPSILON=  1.0000000 bulk dielectric constant

 Exchange correlation treatment:
   GGA     =    PS    GGA type
   LEXCH   =    14    internal setting for exchange type
   VOSKOWN=      0    Vosko Wilk Nusair interpolation
   LHFCALC =     F    Hartree Fock is set to
   LHFONE  =     F    Hartree Fock one center treatment
   AEXX    =    0.0000 exact exchange contribution

 Linear response parameters
   LEPSILON=     F    determine dielectric tensor
   LRPA    =     F    only Hartree local field effects (RPA)
   LNABLA  =     F    use nabla operator in PAW spheres
   LVEL    =     F    velocity operator in full k-point grid
   LINTERFAST=   F  fast interpolation
   KINTER  =     0    interpolate to denser k-point grid
   CSHIFT  =0.1000    complex shift for real part using Kramers Kronig
   OMEGAMAX=  -1.0    maximum frequency
   DEG_THRESHOLD= 0.2000000E-02 threshold for treating states as degnerate
   RTIME   =    0.100 relaxation time in fs

 Orbital magnetization related:
   ORBITALMAG=     F  switch on orbital magnetization
   LCHIMAG   =     F  perturbation theory with respect to B field
   DQ        =  0.001000  dq finite difference perturbation B field



--------------------------------------------------------------------------------------------------------


 Static calculation
 charge density and potential will be updated during run
 non-spin polarized calculation
 Variant of blocked Davidson
 Davidson routine will perform the subspace rotation
 perform sub-space diagonalisation
    after iterative eigenvector-optimisation
 modified Broyden-mixing scheme, WC =      100.0
 initial mixing is a Kerker type mixing with AMIX =  0.4000 and BMIX =      1.0000
 Hartree-type preconditioning will be used
 using additional bands           44
 reciprocal scheme for non local part
 use partial core corrections
 calculate Harris-corrections to forces 
   (improved forces if not selfconsistent)
 use gradient corrections 
 use of overlap-Matrix (Vanderbilt PP)
 Gauss-broadening in eV      SIGMA  =   0.01


--------------------------------------------------------------------------------------------------------


  energy-cutoff  :      525.11
  volume of cell :     1112.56
      direct lattice vectors                 reciprocal lattice vectors
    10.361945660  0.000000000  0.000000000     0.096506972  0.000000000  0.000000000
     0.000000000 10.361945660  0.000000000     0.000000000  0.096506972  0.000000000
     0.000000000  0.000000000 10.361945660     0.000000000  0.000000000  0.096506972

  length of vectors
    10.361945660 10.361945660 10.361945660     0.096506972  0.096506972  0.096506972


 
 k-points in units of 2pi/SCALE and weight: Automatic mesh                          
   0.00000000  0.00000000  0.00000000       0.125
   0.04825349  0.00000000  0.00000000       0.125
   0.00000000  0.04825349  0.00000000       0.250
   0.04825349  0.04825349  0.00000000       0.250
   0.00000000  0.04825349  0.04825349       0.125
   0.04825349  0.04825349  0.04825349       0.125
 
 k-points in reciprocal lattice and weights: Automatic mesh                          
   0.00000000  0.00000000  0.00000000       0.125
   0.50000000  0.00000000  0.00000000       0.125
   0.00000000  0.50000000  0.00000000       0.250
   0.50000000  0.50000000  0.00000000       0.250
   0.00000000  0.50000000  0.50000000       0.125
   0.50000000  0.50000000  0.50000000       0.125
 
 position of ions in fractional coordinates (direct lattice) 
   0.00096507  0.00000000  0.00000000
   0.50000000  0.00000000  0.00000000
   0.00000000  0.50000000  0.00000000
   0.50000000  0.50000000  0.00000000
   0.00000000  0.00000000  0.50000000
   0.50000000  0.00000000  0.50000000
   0.00000000  0.50000000  0.50000000
   0.50000000  0.50000000  0.50000000
   0.00000000  0.25000000  0.25000000
   0.50000000  0.25000000  0.25000000
   0.00000000  0.75000000  0.25000000
   0.50000000  0.75000000  0.25000000
   0.00000000  0.25000000  0.75000000
   0.50000000  0.25000000  0.75000000
   0.00000000  0.75000000  0.75000000
   0.50000000  0.75000000  0.75000000
   0.25000000  0.00000000  0.25000000
   0.75000000  0.00000000  0.25000000
   0.25000000  0.50000000  0.25000000
   0.75000000  0.50000000  0.25000000
   0.25000000  0.00000000  0.75000000
   0.75000000  0.00000000  0.75000000
   0.25000000  0.50000000  0.75000000
   0.75000000  0.50000000  0.75000000
   0.25000000  0.25000000  0.00000000
   0.75000000  0.25000000  0.00000000
   0.25000000  0.75000000  0.00000000
   0.75000000  0.75000000  0.00000000
   0.25000000  0.25000000  0.50000000
   0.75000000  0.25000000  0.50000000
   0.25000000  0.75000000  0.50000000
   0.75000000  0.75000000  0.50000000
   0.25000000  0.00000000  0.00000000
   0.75000000  0.00000000  0.00000000
   0.25000000  0.50000000  0.00000000
   0.75000000  0.50000000  0.00000000
   0.25000000  0.00000000  0.50000000
   0.75000000  0.00000000  0.50000000
   0.25000000  0.50000000  0.50000000
   0.75000000  0.50000000  0.50000000
   0.25000000  0.25000000  0.25000000
   0.75000000  0.25000000  0.25000000
   0.25000000  0.75000000  0.25000000
   0.75000000  0.75000000  0.25000000
   0.25000000  0.25000000  0.75000000
   0.75000000  0.25000000  0.75000000
   0.25000000  0.75000000  0.75000000
   0.75000000  0.75000000  0.75000000
   0.00000000  0.00000000  0.25000000
   0.50000000  0.00000000  0.25000000
   0.00000000  0.50000000  0.25000000
   0.50000000  0.50000000  0.25000000
   0.00000000  0.00000000  0.75000000
   0.50000000  0.00000000  0.75000000
   0.00000000  0.50000000  0.75000000
   0.50000000  0.50000000  0.75000000
   0.00000000  0.25000000  0.00000000
   0.50000000  0.25000000  0.00000000
   0.00000000  0.75000000  0.00000000
   0.50000000  0.75000000  0.00000000
   0.00000000  0.25000000  0.50000000
   0.50000000  0.25000000  0.50000000
   0.00000000  0.75000000  0.50000000
   0.50000000  0.75000000  0.50000000
 
 position of ions in cartesian coordinates  (Angst):
   0.01000000  0.00000000  0.00000000
   5.18097283  0.00000000  0.00000000
   0.00000000  5.18097283  0.00000000
   5.18097283  5.18097283  0.00000000
   0.00000000  0.00000000  5.18097283
   5.18097283  0.00000000  5.18097283
   0.00000000  5.18097283  5.18097283
   5.18097283  5.18097283  5.18097283
   0.00000000  2.59048641  2.59048641
   5.18097283  2.59048641  2.59048641
   0.00000000  7.77145924  2.59048641
   5.18097283  7.77145924  2.59048641
   0.00000000  2.59048641  7.77145924
   5.18097283  2.59048641  7.77145924
   0.00000000  7.77145924  7.77145924
   5.18097283  7.77145924  7.77145924
   2.59048641  0.00000000  2.59048641
   7.77145924  0.00000000  2.59048641
   2.59048641  5.18097283  2.59048641
   7.77145924  5.18097283  2.59048641
   2.59048641  0.00000000  7.77145924
   7.77145924  0.00000000  7.77145924
   2.59048641  5.18097283  7.77145924
   7.77145924  5.18097283  7.77145924
   2.59048641  2.59048641  0.00000000
   7.77145924  2.59048641  0.00000000
   2.59048641  7.77145924  0.00000000
   7.77145924  7.77145924  0.00000000
   2.59048641  2.59048641  5.18097283
   7.77145924  2.59048641  5.18097283
   2.59048641  7.77145924  5.18097283
   7.77145924  7.77145924  5.18097283
   2.59048641  0.00000000  0.00000000
   7.77145924  0.00000000  0.00000000
   2.59048641  5.18097283  0.00000000
   7.77145924  5.18097283  0.00000000
   2.59048641  0.00000000  5.18097283
   7.77145924  0.00000000  5.18097283
   2.59048641  5.18097283  5.18097283
   7.77145924  5.18097283  5.18097283
   2.59048641  2.59048641  2.59048641
   7.77145924  2.59048641  2.59048641
   2.59048641  7.77145924  2.59048641
   7.77145924  7.77145924  2.59048641
   2.59048641  2.59048641  7.77145924
   7.77145924  2.59048641  7.77145924
   2.59048641  7.77145924  7.77145924
   7.77145924  7.77145924  7.77145924
   0.00000000  0.00000000  2.59048641
   5.18097283  0.00000000  2.59048641
   0.00000000  5.18097283  2.59048641
   5.18097283  5.18097283  2.59048641
   0.00000000  0.00000000  7.77145924
   5.18097283  0.00000000  7.77145924
   0.00000000  5.18097283  7.77145924
   5.18097283  5.18097283  7.77145924
   0.00000000  2.59048641  0.00000000
   5.18097283  2.59048641  0.00000000
   0.00000000  7.77145924  0.00000000
   5.18097283  7.77145924  0.00000000
   0.00000000  2.59048641  5.18097283
   5.18097283  2.59048641  5.18097283
   0.00000000  7.77145924  5.18097283
   5.18097283  7.77145924  5.18097283
 


--------------------------------------------------------------------------------------------------------


 k-point  1 :   0.0000 0.0000 0.0000  plane waves:   30551
 k-point  2 :   0.5000 0.0000 0.0000  plane waves:   30334
 k-point  3 :   0.0000 0.5000 0.0000  plane waves:   30334
 k-point  4 :   0.5000 0.5000 0.0000  plane waves:   30432
 k-point  5 :   0.0000 0.5000 0.5000  plane waves:   30432
 k-point  6 :   0.5000 0.5000 0.5000  plane waves:   30592

 maximum and minimum number of plane-waves per node :      6185     6010

 maximum number of plane-waves:     30592
 maximum index in each direction: 
   IXMAX=   19   IYMAX=   19   IZMAX=   19
   IXMIN=  -19   IYMIN=  -19   IZMIN=  -19

 NGX is ok and might be reduce to  78
 NGY is ok and might be reduce to  78
 NGZ is ok and might be reduce to  78

 parallel 3D FFT for wavefunctions:
    minimum data exchange during FFTs selected (reduces bandwidth)
 parallel 3D FFT for charge:
    minimum data exchange during FFTs selected (reduces bandwidth)


 total amount of memory used by VASP on root node   133595. kBytes
========================================================================

   base      :      30000. kBytes
   nonl-proj :      14059. kBytes
   fftplans  :      33043. kBytes
   grid      :      15687. kBytes
   one-center:        105. kBytes
   wavefun   :      40701. kBytes
 
     INWAV:  cpu time    0.00: real time    0.00
 Broyden mixing: mesh for mixing (old mesh)
   NGX = 39   NGY = 39   NGZ = 39
  (NGX  =160   NGY  =160   NGZ  =160)
  gives a total of  59319 points

 initial charge density was supplied:
 charge density of overlapping atoms calculated
 number of electron     448.0000000 magnetization 
 keeping initial charge density in first step


--------------------------------------------------------------------------------------------------------


 Maximum index for augmentation-charges         5931 (set IRDMAX)


--------------------------------------------------------------------------------------------------------


 First call to EWALD:  gamma=   0.171
 Maximum number of real-space cells 3x 3x 3
 Maximum number of reciprocal cells 3x 3x 3

 FEWALD executed in parallel
    FEWALD:  cpu time    0.00: real time    0.00


----------------------------------------- Iteration    1(   1)  ---------------------------------------


    POTLOK:  cpu time    0.17: real time    0.17
    SETDIJ:  cpu time    0.21: real time    0.21
     EDDAV:  cpu time   24.48: real time   24.48
       DOS:  cpu time    0.00: real time    0.00
    --------------------------------------------
      LOOP:  cpu time   24.87: real time   24.87

 eigenvalue-minimisations  :  3888
 total energy-change (2. order) : 0.4298524E+04  (-0.2667881E+05)
 number of electron     448.0000000 magnetization 
 augmentation part      448.0000000 magnetization 

 Free energy of the ion-electron system (eV)
  ---------------------------------------------------
  alpha Z        PSCENC =      1221.40497399
  Ewald energy   TEWEN  =    -25040.93906978
  -Hartree energ DENC   =     -9314.42290092
  -exchange      EXHF   =         0.00000000
  -V(xc)+E(xc)   XCENC  =      1275.11158183
  PAW double counting   =     27701.73694044   -31358.41014717
  entropy T*S    EENTRO =        -0.00141012
  eigenvalues    EBANDS =     -2759.59926783
  atomic energy  EATOM  =     42573.64344421
  ---------------------------------------------------
  free energy    TOTEN  =      4298.52414466 eV

  energy without entropy =     4298.52555477  energy(sigma->0) =     4298.52484972


--------------------------------------------------------------------------------------------------------




----------------------------------------- Iteration    1(   2)  ---------------------------------------


     EDDAV:  cpu time   24.19: real time   24.18
       DOS:  cpu time    0.00: real time    0.00
    --------------------------------------------
      LOOP:  cpu time   24.19: real time   24.18

 eigenvalue-minimisations  :  3824
 total energy-change (2. order) :-0.4197337E+04  (-0.4044581E+04)
 number of electron     448.0000000 magnetization 
 augmentation part      448.0000000 magnetization 

 Free energy of the ion-electron system (eV)
  ---------------------------------------------------
  alpha Z        PSCENC =      1221.40497399
  Ewald energy   TEWEN  =    -25040.93906978
  -Hartree energ DENC   =     -9314.42290092
  -exchange      EXHF   =         0.00000000
  -V(xc)+E(xc)   XCENC  =      1275.11158183
  PAW double counting   =     27701.73694044   -31358.41014717
  entropy T*S    EENTRO =         0.00000000
  eigenvalues    EBANDS =     -6956.93728421
  atomic energy  EATOM  =     42573.64344421
  ---------------------------------------------------
  free energy    TOTEN  =       101.18753839 eV

  energy without entropy =      101.18753839  energy(sigma->0) =      101.18753839


--------------------------------------------------------------------------------------------------------




----------------------------------------- Iteration    1(   3)  ---------------------------------------


     EDDAV:  cpu time   24.54: real time   24.54
       DOS:  cpu time    0.00: real time    0.00
    --------------------------------------------
      LOOP:  cpu time   24.55: real time   24.54

 eigenvalue-minimisations  :  3896
 total energy-change (2. order) :-0.3836880E+03  (-0.3800741E+03)
 number of electron     448.0000000 magnetization 
 augmentation part      448.0000000 magnetization 

 Free energy of the ion-electron system (eV)
  ---------------------------------------------------
  alpha Z        PSCENC =      1221.40497399
  Ewald energy   TEWEN  =    -25040.93906978
  -Hartree energ DENC   =     -9314.42290092
  -exchange      EXHF   =         0.00000000
  -V(xc)+E(xc)   XCENC  =      1275.11158183
  PAW double counting   =     27701.73694044   -31358.41014717
  entropy T*S    EENTRO =         0.00000000
  eigenvalues    EBANDS =     -7340.62530138
  atomic energy  EATOM  =     42573.64344421
  ---------------------------------------------------
  free energy    TOTEN  =      -282.50047877 eV

  energy without entropy =     -282.50047877  energy(sigma->0) =     -282.50047877


--------------------------------------------------------------------------------------------------------




----------------------------------------- Iteration    1(   4)  ---------------------------------------


     EDDAV:  cpu time   23.37: real time   23.38
       DOS:  cpu time    0.00: real time    0.00
    --------------------------------------------
      LOOP:  cpu time   23.38: real time   23.38

 eigenvalue-minimisations  :  3656
 total energy-change (2. order) :-0.1833313E+02  (-0.1826762E+02)
 number of electron     448.0000000 magnetization 
 augmentation part      448.0000000 magnetization 

 Free energy of the ion-electron system (eV)
  ---------------------------------------------------
  alpha Z        PSCENC =      1221.40497399
  Ewald energy   TEWEN  =    -25040.93906978
  -Hartree energ DENC   =     -9314.42290092
  -exchange      EXHF   =         0.00000000
  -V(xc)+E(xc)   XCENC  =      1275.11158183
  PAW double counting   =     27701.73694044   -31358.41014717
  entropy T*S    EENTRO =         0.00000000
  eigenvalues    EBANDS =     -7358.95842756
  atomic energy  EATOM  =     42573.64344421
  ---------------------------------------------------
  free energy    TOTEN  =      -300.83360495 eV

  energy without entropy =     -300.83360495  energy(sigma->0) =     -300.83360495


--------------------------------------------------------------------------------------------------------




----------------------------------------- Iteration    1(   5)  ---------------------------------------


     EDDAV:  cpu time   25.03: real time   25.03
       DOS:  cpu time    0.00: real time    0.00
    CHARGE:  cpu time    0.99: real time    0.98
    MIXING:  cpu time    0.01: real time    0.01
    --------------------------------------------
      LOOP:  cpu time   26.03: real time   26.02

 eigenvalue-minimisations  :  4000
 total energy-change (2. order) :-0.8323867E+00  (-0.8317104E+00)
 number of electron     448.0000000 magnetization 
 augmentation part      105.4590662 magnetization 

 Broyden mixing:
  rms(total) = 0.24707E+01    rms(broyden)= 0.24705E+01
  rms(prec ) = 0.29424E+01
  weight for this iteration     100.00

 Free energy of the ion-electron system (eV)
  ---------------------------------------------------
  alpha Z        PSCENC =      1221.40497399
  Ewald energy   TEWEN  =    -25040.93906978
  -Hartree energ DENC   =     -9314.42290092
  -exchange      EXHF   =         0.00000000
  -V(xc)+E(xc)   XCENC  =      1275.11158183
  PAW double counting   =     27701.73694044   -31358.41014717
  entropy T*S    EENTRO =         0.00000000
  eigenvalues    EBANDS =     -7359.79081426
  atomic energy  EATOM  =     42573.64344421
  ---------------------------------------------------
  free energy    TOTEN  =      -301.66599166 eV

  energy without entropy =     -301.66599166  energy(sigma->0) =     -301.66599166


--------------------------------------------------------------------------------------------------------




----------------------------------------- Iteration    1(   6)  ---------------------------------------


    POTLOK:  cpu time    0.17: real time    0.17
    SETDIJ:  cpu time    0.21: real time    0.21
     EDDAV:  cpu time   22.91: real time   22.90
       DOS:  cpu time    0.00: real time    0.00
    CHARGE:  cpu time    1.00: real time    1.00
    MIXING:  cpu time    0.01: real time    0.01
    --------------------------------------------
      LOOP:  cpu time   24.31: real time   24.31

 eigenvalue-minimisations  :  3560
 total energy-change (2. order) : 0.1048329E+02  (-0.2108645E+01)
 number of electron     448.0000000 magnetization 
 augmentation part      106.7048030 magnetization 

 Broyden mixing:
  rms(total) = 0.17847E+01    rms(broyden)= 0.17847E+01
  rms(prec ) = 0.18987E+01
  weight for this iteration     100.00

 eigenvalues of (default mixing * dielectric matrix)
  average eigenvalue GAMMA=   2.1198
  2.1198

 Free energy of the ion-electron system (eV)
  ---------------------------------------------------
  alpha Z        PSCENC =      1221.40497399
  Ewald energy   TEWEN  =    -25040.93906978
  -Hartree energ DENC   =     -9301.90026830
  -exchange      EXHF   =         0.00000000
  -V(xc)+E(xc)   XCENC  =      1283.83192058
  PAW double counting   =     29963.27785199   -33591.20838025
  entropy T*S    EENTRO =         0.00000000
  eigenvalues    EBANDS =     -7399.29317700
  atomic energy  EATOM  =     42573.64344421
  ---------------------------------------------------
  free energy    TOTEN  =      -291.18270455 eV

  energy without entropy =     -291.18270455  energy(sigma->0) =     -291.18270455


--------------------------------------------------------------------------------------------------------




----------------------------------------- Iteration    1(   7)  ---------------------------------------


    POTLOK:  cpu time    0.17: real time    0.17
    SETDIJ:  cpu time    0.21: real time    0.21
     EDDAV:  cpu time   23.95: real time   23.96
       DOS:  cpu time    0.00: real time    0.00
    CHARGE:  cpu time    1.02: real time    1.02
    MIXING:  cpu time    0.01: real time    0.01
    --------------------------------------------
      LOOP:  cpu time   25.36: real time   25.38

 eigenvalue-minimisations  :  3776
 total energy-change (2. order) : 0.1268705E+01  (-0.8008714E+00)
 number of electron     448.0000000 magnetization 
 augmentation part      107.4692383 magnetization 

 Broyden mixing:
  rms(total) = 0.89361E+00    rms(broyden)= 0.89361E+00
  rms(prec ) = 0.91477E+00
  weight for this iteration     100.00

 eigenvalues of (default mixing * dielectric matrix)
  average eigenvalue GAMMA=   2.2044
  1.4616  2.9471

 Free energy of the ion-electron system (eV)
  ---------------------------------------------------
  alpha Z        PSCENC =      1221.40497399
  Ewald energy   TEWEN  =    -25040.93906978
  -Hartree energ DENC   =     -9273.69570876
  -exchange      EXHF   =         0.00000000
  -V(xc)+E(xc)   XCENC  =      1290.61863189
  PAW double counting   =     34426.58709909   -38042.66358917
  entropy T*S    EENTRO =         0.00000000
  eigenvalues    EBANDS =     -7444.86978141
  atomic energy  EATOM  =     42573.64344421
  ---------------------------------------------------
  free energy    TOTEN  =      -289.91399994 eV

  energy without entropy =     -289.91399994  energy(sigma->0) =     -289.91399994


--------------------------------------------------------------------------------------------------------




----------------------------------------- Iteration    1(   8)  ---------------------------------------


    POTLOK:  cpu time    0.17: real time    0.17
    SETDIJ:  cpu time    0.21: real time    0.21
     EDDAV:  cpu time   22.54: real time   22.55
       DOS:  cpu time    0.00: real time    0.00
    CHARGE:  cpu time    1.01: real time    1.01
    MIXING:  cpu time    0.01: real time    0.01
    --------------------------------------------
      LOOP:  cpu time   23.95: real time   23.96

 eigenvalue-minimisations  :  3484
 total energy-change (2. order) : 0.7810331E-01  (-0.7259591E-01)
 number of electron     448.0000000 magnetization 
 augmentation part      107.2605047 magnetization 

 Broyden mixing:
  rms(total) = 0.23724E+00    rms(broyden)= 0.23724E+00
  rms(prec ) = 0.23989E+00
  weight for this iteration     100.00

 eigenvalues of (default mixing * dielectric matrix)
  average eigenvalue GAMMA=   1.6075
  2.4885  0.9234  1.4107

 Free energy of the ion-electron system (eV)
  ---------------------------------------------------
  alpha Z        PSCENC =      1221.40497399
  Ewald energy   TEWEN  =    -25040.93906978
  -Hartree energ DENC   =     -9240.85418544
  -exchange      EXHF   =         0.00000000
  -V(xc)+E(xc)   XCENC  =      1291.41712204
  PAW double counting   =     38471.89512071   -42096.95156018
  entropy T*S    EENTRO =         0.00000000
  eigenvalues    EBANDS =     -7469.45174218
  atomic energy  EATOM  =     42573.64344421
  ---------------------------------------------------
  free energy    TOTEN  =      -289.83589663 eV

  energy without entropy =     -289.83589663  energy(sigma->0) =     -289.83589663


--------------------------------------------------------------------------------------------------------




----------------------------------------- Iteration    1(   9)  ---------------------------------------


    POTLOK:  cpu time    0.17: real time    0.17
    SETDIJ:  cpu time    0.21: real time    0.21
     EDDAV:  cpu time   23.43: real time   23.45
       DOS:  cpu time    0.00: real time    0.00
    CHARGE:  cpu time    1.02: real time    1.02
    MIXING:  cpu time    0.01: real time    0.01
    --------------------------------------------
      LOOP:  cpu time   24.85: real time   24.87

 eigenvalue-minimisations  :  3672
 total energy-change (2. order) : 0.5092219E-02  (-0.2680735E-02)
 number of electron     448.0000000 magnetization 
 augmentation part      107.2883098 magnetization 

 Broyden mixing:
  rms(total) = 0.49380E-01    rms(broyden)= 0.49380E-01
  rms(prec ) = 0.50830E-01
  weight for this iteration     100.00

 eigenvalues of (default mixing * dielectric matrix)
  average eigenvalue GAMMA=   1.8730
  2.5137  2.5137  1.0406  1.4241

 Free energy of the ion-electron system (eV)
  ---------------------------------------------------
  alpha Z        PSCENC =      1221.40497399
  Ewald energy   TEWEN  =    -25040.93906978
  -Hartree energ DENC   =     -9244.92763196
  -exchange      EXHF   =         0.00000000
  -V(xc)+E(xc)   XCENC  =      1291.27780784
  PAW double counting   =     37658.42847471   -41281.88369049
  entropy T*S    EENTRO =         0.00000000
  eigenvalues    EBANDS =     -7466.83511295
  atomic energy  EATOM  =     42573.64344421
  ---------------------------------------------------
  free energy    TOTEN  =      -289.83080441 eV

  energy without entropy =     -289.83080441  energy(sigma->0) =     -289.83080441


--------------------------------------------------------------------------------------------------------




----------------------------------------- Iteration    1(  10)  ---------------------------------------


    POTLOK:  cpu time    0.17: real time    0.17
    SETDIJ:  cpu time    0.21: real time    0.21
     EDDAV:  cpu time   23.23: real time   23.24
       DOS:  cpu time    0.00: real time    0.00
    CHARGE:  cpu time    1.01: real time    1.01
    MIXING:  cpu time    0.01: real time    0.01
    --------------------------------------------
      LOOP:  cpu time   24.64: real time   24.65

 eigenvalue-minimisations  :  3632
 total energy-change (2. order) :-0.4492606E-03  (-0.6326383E-03)
 number of electron     448.0000000 magnetization 
 augmentation part      107.3093805 magnetization 

 Broyden mixing:
  rms(total) = 0.22881E-01    rms(broyden)= 0.22881E-01
  rms(prec ) = 0.24059E-01
  weight for this iteration     100.00

 eigenvalues of (default mixing * dielectric matrix)
  average eigenvalue GAMMA=   1.6927
  2.6864  2.4642  1.2565  1.1809  0.8755

 Free energy of the ion-electron system (eV)
  ---------------------------------------------------
  alpha Z        PSCENC =      1221.40497399
  Ewald energy   TEWEN  =    -25040.93906978
  -Hartree energ DENC   =     -9242.77274251
  -exchange      EXHF   =         0.00000000
  -V(xc)+E(xc)   XCENC  =      1291.29482079
  PAW double counting   =     37360.01866951   -40983.51733516
  entropy T*S    EENTRO =         0.00000000
  eigenvalues    EBANDS =     -7468.96401471
  atomic energy  EATOM  =     42573.64344421
  ---------------------------------------------------
  free energy    TOTEN  =      -289.83125367 eV

  energy without entropy =     -289.83125367  energy(sigma->0) =     -289.83125367


--------------------------------------------------------------------------------------------------------




----------------------------------------- Iteration    1(  11)  ---------------------------------------


    POTLOK:  cpu time    0.17: real time    0.17
    SETDIJ:  cpu time    0.21: real time    0.21
     EDDAV:  cpu time   22.97: real time   22.98
       DOS:  cpu time    0.00: real time    0.00
    CHARGE:  cpu time    1.01: real time    1.01
    MIXING:  cpu time    0.01: real time    0.01
    --------------------------------------------
      LOOP:  cpu time   24.38: real time   24.39

 eigenvalue-minimisations  :  3560
 total energy-change (2. order) : 0.2597094E-03  (-0.1009529E-03)
 number of electron     448.0000000 magnetization 
 augmentation part      107.3006427 magnetization 

 Broyden mixing:
  rms(total) = 0.21692E-02    rms(broyden)= 0.21690E-02
  rms(prec ) = 0.22610E-02
  weight for this iteration     100.00

 eigenvalues of (default mixing * dielectric matrix)
  average eigenvalue GAMMA=   1.5579
  2.6645  2.4397  1.2337  1.2337  0.8879  0.8879

 Free energy of the ion-electron system (eV)
  ---------------------------------------------------
  alpha Z        PSCENC =      1221.40497399
  Ewald energy   TEWEN  =    -25040.93906978
  -Hartree energ DENC   =     -9242.02335159
  -exchange      EXHF   =         0.00000000
  -V(xc)+E(xc)   XCENC  =      1291.28113425
  PAW double counting   =     37428.67205097   -41052.50482844
  entropy T*S    EENTRO =         0.00000000
  eigenvalues    EBANDS =     -7469.36534758
  atomic energy  EATOM  =     42573.64344421
  ---------------------------------------------------
  free energy    TOTEN  =      -289.83099396 eV

  energy without entropy =     -289.83099396  energy(sigma->0) =     -289.83099396


--------------------------------------------------------------------------------------------------------




----------------------------------------- Iteration    1(  12)  ---------------------------------------


    POTLOK:  cpu time    0.17: real time    0.17
    SETDIJ:  cpu time    0.21: real time    0.21
     EDDAV:  cpu time   23.47: real time   23.49
       DOS:  cpu time    0.00: real time    0.00
    CHARGE:  cpu time    1.01: real time    1.01
    MIXING:  cpu time    0.01: real time    0.01
    --------------------------------------------
      LOOP:  cpu time   24.88: real time   24.90

 eigenvalue-minimisations  :  3668
 total energy-change (2. order) :-0.2086883E-05  (-0.3132602E-05)
 number of electron     448.0000000 magnetization 
 augmentation part      107.2996856 magnetization 

 Broyden mixing:
  rms(total) = 0.22166E-02    rms(broyden)= 0.22166E-02
  rms(prec ) = 0.22408E-02
  weight for this iteration     100.00

 eigenvalues of (default mixing * dielectric matrix)
  average eigenvalue GAMMA=   1.8426
  3.4498  2.7426  2.3674  1.3489  0.9570  1.0160  1.0160

 Free energy of the ion-electron system (eV)
  ---------------------------------------------------
  alpha Z        PSCENC =      1221.40497399
  Ewald energy   TEWEN  =    -25040.93906978
  -Hartree energ DENC   =     -9242.04504500
  -exchange      EXHF   =         0.00000000
  -V(xc)+E(xc)   XCENC  =      1291.28156176
  PAW double counting   =     37434.00000341   -41057.84866107
  entropy T*S    EENTRO =         0.00000000
  eigenvalues    EBANDS =     -7469.32820358
  atomic energy  EATOM  =     42573.64344421
  ---------------------------------------------------
  free energy    TOTEN  =      -289.83099605 eV

  energy without entropy =     -289.83099605  energy(sigma->0) =     -289.83099605


--------------------------------------------------------------------------------------------------------




----------------------------------------- Iteration    1(  13)  ---------------------------------------


    POTLOK:  cpu time    0.17: real time    0.17
    SETDIJ:  cpu time    0.21: real time    0.21
     EDDAV:  cpu time   23.38: real time   23.39
       DOS:  cpu time    0.00: real time    0.00
    CHARGE:  cpu time    1.02: real time    1.02
    MIXING:  cpu time    0.01: real time    0.01
    --------------------------------------------
      LOOP:  cpu time   24.80: real time   24.81

 eigenvalue-minimisations  :  3640
 total energy-change (2. order) :-0.2802008E-05  (-0.6118072E-06)
 number of electron     448.0000000 magnetization 
 augmentation part      107.2990062 magnetization 

 Broyden mixing:
  rms(total) = 0.28466E-03    rms(broyden)= 0.28464E-03
  rms(prec ) = 0.39614E-03
  weight for this iteration     100.00

 eigenvalues of (default mixing * dielectric matrix)
  average eigenvalue GAMMA=   1.6481
  2.6830  2.5478  2.5478  1.2021  1.2021  1.0311  0.9855  0.9855

 Free energy of the ion-electron system (eV)
  ---------------------------------------------------
  alpha Z        PSCENC =      1221.40497399
  Ewald energy   TEWEN  =    -25040.93906978
  -Hartree energ DENC   =     -9242.04075123
  -exchange      EXHF   =         0.00000000
  -V(xc)+E(xc)   XCENC  =      1291.27782633
  PAW double counting   =     37426.87100975   -41050.76612847
  entropy T*S    EENTRO =         0.00000000
  eigenvalues    EBANDS =     -7469.28230366
  atomic energy  EATOM  =     42573.64344421
  ---------------------------------------------------
  free energy    TOTEN  =      -289.83099885 eV

  energy without entropy =     -289.83099885  energy(sigma->0) =     -289.83099885


--------------------------------------------------------------------------------------------------------




----------------------------------------- Iteration    1(  14)  ---------------------------------------


    POTLOK:  cpu time    0.17: real time    0.17
    SETDIJ:  cpu time    0.21: real time    0.21
     EDDAV:  cpu time   22.79: real time   22.80
       DOS:  cpu time    0.00: real time    0.00
    CHARGE:  cpu time    1.03: real time    1.03
    MIXING:  cpu time    0.01: real time    0.01
    --------------------------------------------
      LOOP:  cpu time   24.21: real time   24.23

 eigenvalue-minimisations  :  3524
 total energy-change (2. order) : 0.3145396E-06  (-0.1815393E-06)
 number of electron     448.0000000 magnetization 
 augmentation part      107.2993555 magnetization 

 Broyden mixing:
  rms(total) = 0.28975E-03    rms(broyden)= 0.28975E-03
  rms(prec ) = 0.29361E-03
  weight for this iteration     100.00

 eigenvalues of (default mixing * dielectric matrix)
  average eigenvalue GAMMA=   1.4838
  2.6654  2.5712  2.5712  1.1967  1.1967  1.0356  0.9833  0.9833  0.1512

 Free energy of the ion-electron system (eV)
  ---------------------------------------------------
  alpha Z        PSCENC =      1221.40497399
  Ewald energy   TEWEN  =    -25040.93906978
  -Hartree energ DENC   =     -9242.04382291
  -exchange      EXHF   =         0.00000000
  -V(xc)+E(xc)   XCENC  =      1291.28077884
  PAW double counting   =     37428.82914080   -41052.70961562
  entropy T*S    EENTRO =         0.00000000
  eigenvalues    EBANDS =     -7469.29682808
  atomic energy  EATOM  =     42573.64344421
  ---------------------------------------------------
  free energy    TOTEN  =      -289.83099854 eV

  energy without entropy =     -289.83099854  energy(sigma->0) =     -289.83099854


--------------------------------------------------------------------------------------------------------




----------------------------------------- Iteration    1(  15)  ---------------------------------------


    POTLOK:  cpu time    0.17: real time    0.17
    SETDIJ:  cpu time    0.21: real time    0.22
     EDDAV:  cpu time   20.64: real time   20.65
       DOS:  cpu time    0.00: real time    0.00
    CHARGE:  cpu time    1.00: real time    1.00
    MIXING:  cpu time    0.01: real time    0.01
    --------------------------------------------
      LOOP:  cpu time   22.04: real time   22.05

 eigenvalue-minimisations  :  3096
 total energy-change (2. order) : 0.5432230E-07  (-0.6288430E-08)
 number of electron     448.0000000 magnetization 
 augmentation part      107.2993811 magnetization 

 Broyden mixing:
  rms(total) = 0.27954E-03    rms(broyden)= 0.27953E-03
  rms(prec ) = 0.28218E-03
  weight for this iteration     100.00

 eigenvalues of (default mixing * dielectric matrix)
  average eigenvalue GAMMA=   1.5623
  3.0316  2.7202  2.4083  1.1281  1.1281  1.3086  1.0302  1.0302  0.9189  0.9189

 Free energy of the ion-electron system (eV)
  ---------------------------------------------------
  alpha Z        PSCENC =      1221.40497399
  Ewald energy   TEWEN  =    -25040.93906978
  -Hartree energ DENC   =     -9242.04446614
  -exchange      EXHF   =         0.00000000
  -V(xc)+E(xc)   XCENC  =      1291.28078001
  PAW double counting   =     37428.96173263   -41052.84155211
  entropy T*S    EENTRO =         0.00000000
  eigenvalues    EBANDS =     -7469.29684129
  atomic energy  EATOM  =     42573.64344421
  ---------------------------------------------------
  free energy    TOTEN  =      -289.83099848 eV

  energy without entropy =     -289.83099848  energy(sigma->0) =     -289.83099848


--------------------------------------------------------------------------------------------------------




----------------------------------------- Iteration    1(  16)  ---------------------------------------


    POTLOK:  cpu time    0.17: real time    0.17
    SETDIJ:  cpu time    0.21: real time    0.21
     EDDAV:  cpu time   19.43: real time   19.44
       DOS:  cpu time    0.00: real time    0.00
    CHARGE:  cpu time    1.00: real time    1.00
    MIXING:  cpu time    0.01: real time    0.01
    --------------------------------------------
      LOOP:  cpu time   20.83: real time   20.84

 eigenvalue-minimisations  :  2848
 total energy-change (2. order) :-0.4025060E-07  (-0.3529038E-08)
 number of electron     448.0000000 magnetization 
 augmentation part      107.2993288 magnetization 

 Broyden mixing:
  rms(total) = 0.14548E-03    rms(broyden)= 0.14548E-03
  rms(prec ) = 0.15126E-03
  weight for this iteration     100.00

 eigenvalues of (default mixing * dielectric matrix)
  average eigenvalue GAMMA=   1.5918
  2.7700  2.5426  2.5426  2.1055  1.1182  1.1182  1.3368  1.1092  1.1092  0.9869
  0.7708

 Free energy of the ion-electron system (eV)
  ---------------------------------------------------
  alpha Z        PSCENC =      1221.40497399
  Ewald energy   TEWEN  =    -25040.93906978
  -Hartree energ DENC   =     -9242.04433067
  -exchange      EXHF   =         0.00000000
  -V(xc)+E(xc)   XCENC  =      1291.28036165
  PAW double counting   =     37428.30719001   -41052.18903162
  entropy T*S    EENTRO =         0.00000000
  eigenvalues    EBANDS =     -7469.29453632
  atomic energy  EATOM  =     42573.64344421
  ---------------------------------------------------
  free energy    TOTEN  =      -289.83099852 eV

  energy without entropy =     -289.83099852  energy(sigma->0) =     -289.83099852


--------------------------------------------------------------------------------------------------------




----------------------------------------- Iteration    1(  17)  ---------------------------------------


    POTLOK:  cpu time    0.17: real time    0.17
    SETDIJ:  cpu time    0.21: real time    0.21
     EDDAV:  cpu time   15.44: real time   15.45
       DOS:  cpu time    0.00: real time    0.00
    CHARGE:  cpu time    1.00: real time    1.01
    MIXING:  cpu time    0.01: real time    0.01
    --------------------------------------------
      LOOP:  cpu time   16.85: real time   16.85

 eigenvalue-minimisations  :  2032
 total energy-change (2. order) : 0.1931112E-06  (-0.9582633E-09)
 number of electron     448.0000000 magnetization 
 augmentation part      107.2993595 magnetization 

 Broyden mixing:
  rms(total) = 0.15050E-03    rms(broyden)= 0.15049E-03
  rms(prec ) = 0.15278E-03
  weight for this iteration     100.00

 eigenvalues of (default mixing * dielectric matrix)
  average eigenvalue GAMMA=   1.4983
  2.8518  2.5780  2.5780  2.0294  1.3261  1.1348  1.1348  1.0015  0.9867  0.9867
  0.6860  0.6860

 Free energy of the ion-electron system (eV)
  ---------------------------------------------------
  alpha Z        PSCENC =      1221.40497399
  Ewald energy   TEWEN  =    -25040.93906978
  -Hartree energ DENC   =     -9242.04579767
  -exchange      EXHF   =         0.00000000
  -V(xc)+E(xc)   XCENC  =      1291.28058189
  PAW double counting   =     37428.54834388   -41052.42575728
  entropy T*S    EENTRO =         0.00000000
  eigenvalues    EBANDS =     -7469.29771758
  atomic energy  EATOM  =     42573.64344421
  ---------------------------------------------------
  free energy    TOTEN  =      -289.83099833 eV

  energy without entropy =     -289.83099833  energy(sigma->0) =     -289.83099833


--------------------------------------------------------------------------------------------------------




----------------------------------------- Iteration    1(  18)  ---------------------------------------


    POTLOK:  cpu time    0.17: real time    0.17
    SETDIJ:  cpu time    0.21: real time    0.21
     EDDAV:  cpu time   15.19: real time   15.20
       DOS:  cpu time    0.00: real time    0.00
    CHARGE:  cpu time    1.00: real time    1.00
    MIXING:  cpu time    0.01: real time    0.01
    --------------------------------------------
      LOOP:  cpu time   16.58: real time   16.59

 eigenvalue-minimisations  :  1976
 total energy-change (2. order) :-0.3298919E-07  (-0.8119062E-09)
 number of electron     448.0000000 magnetization 
 augmentation part      107.2993636 magnetization 

 Broyden mixing:
  rms(total) = 0.12098E-03    rms(broyden)= 0.12097E-03
  rms(prec ) = 0.12225E-03
  weight for this iteration     100.00

 eigenvalues of (default mixing * dielectric matrix)
  average eigenvalue GAMMA=   1.3843
  2.8742  2.5745  2.5745  1.9634  1.3156  1.1558  1.1558  0.9987  0.9891  0.9891
  0.6446  0.3802  0.3802

 Free energy of the ion-electron system (eV)
  ---------------------------------------------------
  alpha Z        PSCENC =      1221.40497399
  Ewald energy   TEWEN  =    -25040.93906978
  -Hartree energ DENC   =     -9242.04660181
  -exchange      EXHF   =         0.00000000
  -V(xc)+E(xc)   XCENC  =      1291.28060580
  PAW double counting   =     37428.44231302   -41052.31990865
  entropy T*S    EENTRO =         0.00000000
  eigenvalues    EBANDS =     -7469.29675514
  atomic energy  EATOM  =     42573.64344421
  ---------------------------------------------------
  free energy    TOTEN  =      -289.83099836 eV

  energy without entropy =     -289.83099836  energy(sigma->0) =     -289.83099836


--------------------------------------------------------------------------------------------------------




----------------------------------------- Iteration    1(  19)  ---------------------------------------


    POTLOK:  cpu time    0.17: real time    0.17
    SETDIJ:  cpu time    0.21: real time    0.21
     EDDAV:  cpu time   15.04: real time   15.04
       DOS:  cpu time    0.00: real time    0.00
    --------------------------------------------
      LOOP:  cpu time   15.42: real time   15.43

 eigenvalue-minimisations  :  1944
 total energy-change (2. order) :-0.1062290E-08  (-0.1391510E-09)
 number of electron     448.0000000 magnetization 
 augmentation part      107.2993636 magnetization 

 Free energy of the ion-electron system (eV)
  ---------------------------------------------------
  alpha Z        PSCENC =      1221.40497399
  Ewald energy   TEWEN  =    -25040.93906978
  -Hartree energ DENC   =     -9242.04660337
  -exchange      EXHF   =         0.00000000
  -V(xc)+E(xc)   XCENC  =      1291.28060549
  PAW double counting   =     37428.43839278   -41052.31599591
  entropy T*S    EENTRO =         0.00000000
  eigenvalues    EBANDS =     -7469.29674577
  atomic energy  EATOM  =     42573.64344421
  ---------------------------------------------------
  free energy    TOTEN  =      -289.83099836 eV

  energy without entropy =     -289.83099836  energy(sigma->0) =     -289.83099836


--------------------------------------------------------------------------------------------------------




 average (electrostatic) potential at core
  the test charge radii are     0.8294  0.9698
  (the norm of the test charge is              1.0000)
       1 -42.5907       2 -42.5907       3 -42.5907       4 -42.5907       5 -42.5907
       6 -42.5907       7 -42.5908       8 -42.5908       9 -42.5907      10 -42.5908
      11 -42.5907      12 -42.5908      13 -42.5907      14 -42.5908      15 -42.5907
      16 -42.5908      17 -42.5927      18 -42.5888      19 -42.5912      20 -42.5904
      21 -42.5927      22 -42.5888      23 -42.5912      24 -42.5904      25 -42.5927
      26 -42.5888      27 -42.5927      28 -42.5888      29 -42.5912      30 -42.5904
      31 -42.5912      32 -42.5904      33 -86.3159      34 -86.2960      35 -86.3056
      36 -86.3063      37 -86.3056      38 -86.3063      39 -86.3065      40 -86.3054
      41 -86.3068      42 -86.3050      43 -86.3068      44 -86.3050      45 -86.3068
      46 -86.3050      47 -86.3068      48 -86.3050      49 -86.3059      50 -86.3059
      51 -86.3059      52 -86.3059      53 -86.3059      54 -86.3059      55 -86.3059
      56 -86.3059      57 -86.3059      58 -86.3059      59 -86.3059      60 -86.3059
      61 -86.3059      62 -86.3059      63 -86.3059      64 -86.3059
 
 
 
 E-fermi :   3.7130     XC(G=0): -10.0700     alpha+bet :-10.6020


 k-point     1 :       0.0000    0.0000    0.0000
  band No.  band energies     occupation 
      1     -37.6439      2.00000
      2     -37.6438      2.00000
      3     -37.6435      2.00000
      4     -37.6435      2.00000
      5     -37.6429      2.00000
      6     -37.6429      2.00000
      7     -37.6427      2.00000
      8     -37.6417      2.00000
      9     -37.6417      2.00000
     10     -37.6416      2.00000
     11     -37.6416      2.00000
     12     -37.6416      2.00000
     13     -37.6415      2.00000
     14     -37.6415      2.00000
     15     -37.6414      2.00000
     16     -37.6411      2.00000
     17     -37.6411      2.00000
     18     -37.6411      2.00000
     19     -37.6411      2.00000
     20     -37.6411      2.00000
     21     -37.6409      2.00000
     22     -37.6407      2.00000
     23     -37.6406      2.00000
     24     -37.6405      2.00000
     25     -37.6405      2.00000
     26     -37.6404      2.00000
     27     -37.6404      2.00000
     28     -37.6404      2.00000
     29     -37.6403      2.00000
     30     -37.6403      2.00000
     31     -37.6403      2.00000
     32     -37.6395      2.00000
     33     -37.6393      2.00000
     34     -37.6393      2.00000
     35     -37.6393      2.00000
     36     -37.6392      2.00000
     37     -37.6392      2.00000
     38     -37.6391      2.00000
     39     -37.6391      2.00000
     40     -37.6391      2.00000
     41     -37.6390      2.00000
     42     -37.6390      2.00000
     43     -37.6390      2.00000
     44     -37.6388      2.00000
     45     -37.6388      2.00000
     46     -37.6388      2.00000
     47     -37.6388      2.00000
     48     -37.6388      2.00000
     49     -37.6388      2.00000
     50     -37.6387      2.00000
     51     -37.6387      2.00000
     52     -37.6387      2.00000
     53     -37.6387      2.00000
     54     -37.6386      2.00000
     55     -37.6385      2.00000
     56     -37.6385      2.00000
     57     -37.6385      2.00000
     58     -37.6385      2.00000
     59     -37.6380      2.00000
     60     -37.6380      2.00000
     61     -37.6377      2.00000
     62     -37.6377      2.00000
     63     -37.6376      2.00000
     64     -37.6374      2.00000
     65     -37.6374      2.00000
     66     -37.6373      2.00000
     67     -37.6373      2.00000
     68     -37.6372      2.00000
     69     -37.6372      2.00000
     70     -37.6371      2.00000
     71     -37.6371      2.00000
     72     -37.6370      2.00000
     73     -37.6369      2.00000
     74     -37.6367      2.00000
     75     -37.6367      2.00000
     76     -37.6367      2.00000
     77     -37.6367      2.00000
     78     -37.6367      2.00000
     79     -37.6367      2.00000
     80     -37.6367      2.00000
     81     -37.6366      2.00000
     82     -37.6365      2.00000
     83     -37.6365      2.00000
     84     -37.6364      2.00000
     85     -37.6364      2.00000
     86     -37.6364      2.00000
     87     -37.6363      2.00000
     88     -37.6362      2.00000
     89     -37.6360      2.00000
     90     -37.6358      2.00000
     91     -37.6358      2.00000
     92     -37.6353      2.00000
     93     -37.6352      2.00000
     94     -37.6351      2.00000
     95     -37.6350      2.00000
     96     -37.6350      2.00000
     97      -9.1732      2.00000
     98      -8.4101      2.00000
     99      -8.4077      2.00000
    100      -8.4077      2.00000
    101      -8.4077      2.00000
    102      -8.4077      2.00000
    103      -8.4054      2.00000
    104      -7.8903      2.00000
    105      -7.8857      2.00000
    106      -7.8857      2.00000
    107      -7.8856      2.00000
    108      -7.8856      2.00000
    109      -7.8856      2.00000
    110      -7.8856      2.00000
    111      -7.8856      2.00000
    112      -7.8856      2.00000
    113      -7.8855      2.00000
    114      -7.8855      2.00000
    115      -7.8812      2.00000
    116      -7.8025      2.00000
    117      -7.8025      2.00000
    118      -7.8025      2.00000
    119      -7.8024      2.00000
    120      -7.4243      2.00000
    121      -7.4243      2.00000
    122      -7.4243      2.00000
    123      -7.3755      2.00000
    124      -7.3733      2.00000
    125      -7.3733      2.00000
    126      -7.3733      2.00000
    127      -7.3733      2.00000
    128      -7.3709      2.00000
    129      -1.3772      2.00000
    130      -1.3772      2.00000
    131      -1.3772      2.00000
    132      -1.3772      2.00000
    133      -0.7318      2.00000
    134      -0.7318      2.00000
    135      -0.7318      2.00000
    136      -0.2105      2.00000
    137      -0.2105      2.00000
    138      -0.2099      2.00000
    139      -0.2093      2.00000
    140      -0.2092      2.00000
    141      -0.2091      2.00000
    142      -0.2091      2.00000
    143      -0.2091      2.00000
    144      -0.2089      2.00000
    145      -0.2084      2.00000
    146      -0.2078      2.00000
    147      -0.2078      2.00000
    148       0.2516      2.00000
    149       0.2516      2.00000
    150       0.2529      2.00000
    151       0.2529      2.00000
    152       0.2533      2.00000
    153       0.2533      2.00000
    154       0.2533      2.00000
    155       0.2533      2.00000
    156       0.2537      2.00000
    157       0.2537      2.00000
    158       0.2550      2.00000
    159       0.2550      2.00000
    160       0.9681      2.00000
    161       0.9689      2.00000
    162       0.9689      2.00000
    163       0.9689      2.00000
    164       0.9689      2.00000
    165       0.9698      2.00000
    166       1.1557      2.00000
    167       1.1557      2.00000
    168       1.1561      2.00000
    169       1.1561      2.00000
    170       1.1564      2.00000
    171       1.1570      2.00000
    172       1.1707      2.00000
    173       1.1707      2.00000
    174       1.1713      2.00000
    175       1.1716      2.00000
    176       1.1716      2.00000
    177       1.1716      2.00000
    178       1.1718      2.00000
    179       1.1718      2.00000
    180       1.1719      2.00000
    181       1.1723      2.00000
    182       1.1726      2.00000
    183       1.1726      2.00000
    184       1.8539      2.00000
    185       1.8539      2.00000
    186       1.8539      2.00000
    187       1.8539      2.00000
    188       1.8539      2.00000
    189       1.8539      2.00000
    190       2.5831      2.00000
    191       2.5831      2.00000
    192       2.5838      2.00000
    193       2.5838      2.00000
    194       2.5841      2.00000
    195       2.5843      2.00000
    196       2.5843      2.00000
    197       2.5843      2.00000
    198       2.5847      2.00000
    199       2.5847      2.00000
    200       2.5854      2.00000
    201       2.5854      2.00000
    202       2.9291      2.00000
    203       2.9291      2.00000
    204       2.9298      2.00000
    205       2.9304      2.00000
    206       2.9305      2.00000
    207       2.9305      2.00000
    208       2.9305      2.00000
    209       2.9305      2.00000
    210       2.9306      2.00000
    211       2.9311      2.00000
    212       2.9317      2.00000
    213       2.9317      2.00000
    214       2.9718      2.00000
    215       2.9718      2.00000
    216       2.9718      2.00000
    217       2.9718      2.00000
    218       2.9718      2.00000
    219       2.9719      2.00000
    220       2.9719      2.00000
    221       2.9719      2.00000
    222       3.5878      2.00000
    223       3.5878      2.00000
    224       3.5878      2.00000
    225       6.3230      0.00000
    226       6.3230      0.00000
    227       6.3230      0.00000
    228       7.2837      0.00000
    229       7.7889      0.00000
    230       7.7889      0.00000
    231       7.7889      0.00000
    232       8.0075      0.00000
    233       8.0075      0.00000
    234       8.0075      0.00000
    235       8.0075      0.00000
    236       8.5749      0.00000
    237       8.5754      0.00000
    238       8.5754      0.00000
    239       8.5754      0.00000
    240       8.5754      0.00000
    241       8.5759      0.00000
    242       8.8516      0.00000
    243       8.8522      0.00000
    244       8.8522      0.00000
    245       8.8522      0.00000
    246       8.8522      0.00000
    247       8.8529      0.00000
    248       9.0396      0.00000
    249       9.0409      0.00000
    250       9.0409      0.00000
    251       9.0409      0.00000
    252       9.0409      0.00000
    253       9.0423      0.00000
    254       9.1834      0.00000
    255       9.1839      0.00000
    256       9.1839      0.00000
    257       9.1845      0.00000
    258       9.1845      0.00000
    259       9.1845      0.00000
    260       9.1846      0.00000
    261       9.1846      0.00000
    262       9.1846      0.00000
    263       9.1852      0.00000
    264       9.1852      0.00000
    265       9.1857      0.00000
    266      10.4316      0.00000
    267      10.4316      0.00000
    268      10.4316      0.00000

 k-point     2 :       0.5000    0.0000    0.0000
  band No.  band energies     occupation 
      1     -37.6435      2.00000
      2     -37.6434      2.00000
      3     -37.6428      2.00000
      4     -37.6428      2.00000
      5     -37.6428      2.00000
      6     -37.6428      2.00000
      7     -37.6424      2.00000
      8     -37.6422      2.00000
      9     -37.6422      2.00000
     10     -37.6417      2.00000
     11     -37.6417      2.00000
     12     -37.6416      2.00000
     13     -37.6415      2.00000
     14     -37.6415      2.00000
     15     -37.6414      2.00000
     16     -37.6414      2.00000
     17     -37.6414      2.00000
     18     -37.6413      2.00000
     19     -37.6413      2.00000
     20     -37.6413      2.00000
     21     -37.6412      2.00000
     22     -37.6410      2.00000
     23     -37.6408      2.00000
     24     -37.6408      2.00000
     25     -37.6408      2.00000
     26     -37.6406      2.00000
     27     -37.6402      2.00000
     28     -37.6402      2.00000
     29     -37.6402      2.00000
     30     -37.6401      2.00000
     31     -37.6399      2.00000
     32     -37.6398      2.00000
     33     -37.6398      2.00000
     34     -37.6397      2.00000
     35     -37.6396      2.00000
     36     -37.6395      2.00000
     37     -37.6395      2.00000
     38     -37.6395      2.00000
     39     -37.6395      2.00000
     40     -37.6395      2.00000
     41     -37.6395      2.00000
     42     -37.6388      2.00000
     43     -37.6388      2.00000
     44     -37.6386      2.00000
     45     -37.6386      2.00000
     46     -37.6385      2.00000
     47     -37.6385      2.00000
     48     -37.6383      2.00000
     49     -37.6383      2.00000
     50     -37.6383      2.00000
     51     -37.6382      2.00000
     52     -37.6380      2.00000
     53     -37.6380      2.00000
     54     -37.6379      2.00000
     55     -37.6379      2.00000
     56     -37.6378      2.00000
     57     -37.6378      2.00000
     58     -37.6378      2.00000
     59     -37.6378      2.00000
     60     -37.6377      2.00000
     61     -37.6377      2.00000
     62     -37.6376      2.00000
     63     -37.6376      2.00000
     64     -37.6375      2.00000
     65     -37.6374      2.00000
     66     -37.6374      2.00000
     67     -37.6374      2.00000
     68     -37.6373      2.00000
     69     -37.6373      2.00000
     70     -37.6372      2.00000
     71     -37.6371      2.00000
[...]
 total augmentation occupancy for first ion, spin component:           1
  2.002   0.000   0.000   0.000   0.000   0.000   0.000   0.000   0.000   0.000   0.000   0.000   0.000
  0.000   2.002   0.000   0.000   0.000   0.000   0.000   0.000   0.000   0.000   0.000   0.000   0.000
  0.000   0.000   2.002   0.000   0.000   0.000   0.000   0.000   0.000   0.000   0.000   0.000   0.000
  0.000   0.000   0.000   0.058   0.000   0.000   0.000   0.000   0.000   0.000   0.000   0.000   0.000
  0.000   0.000   0.000   0.000   0.058   0.000   0.000   0.000   0.000   0.000   0.000   0.000   0.000
  0.000   0.000   0.000   0.000   0.000   0.058   0.002   0.000   0.000   0.000   0.000   0.000   0.001
  0.000   0.000   0.000   0.000   0.000   0.002   0.799   0.011   0.000   0.000   0.000   0.000   0.000
  0.000   0.000   0.000   0.000   0.000   0.000   0.011   0.000   0.000   0.000   0.000   0.000   0.000
  0.000   0.000   0.000   0.000   0.000   0.000   0.000   0.000   0.006   0.000   0.000   0.000   0.000
  0.000   0.000   0.000   0.000   0.000   0.000   0.000   0.000   0.000   0.006   0.000   0.000   0.000
  0.000   0.000   0.000   0.000   0.000   0.000   0.000   0.000   0.000   0.000   0.029   0.000   0.000
  0.000   0.000   0.000   0.000   0.000   0.000   0.000   0.000   0.000   0.000   0.000   0.006   0.000
  0.000   0.000   0.000   0.000   0.000   0.001   0.000   0.000   0.000   0.000   0.000   0.000   0.029


------------------------ aborting loop because EDIFF is reached ----------------------------------------


    CHARGE:  cpu time    0.98: real time    0.98
    FORLOC:  cpu time    0.06: real time    0.06
    FORNL :  cpu time   12.80: real time   12.80
    STRESS:  cpu time   19.95: real time   19.95
    FORCOR:  cpu time    0.23: real time    0.23
    FORHAR:  cpu time    0.11: real time    0.11
    MIXING:  cpu time    0.01: real time    0.01
    OFIELD:  cpu time    0.00: real time    0.00

  FORCE on cell =-STRESS in cart. coord.  units (eV):
  Direction    XX          YY          ZZ          XY          YZ          ZX
  --------------------------------------------------------------------------------------
  Alpha Z  1221.40497  1221.40497  1221.40497
  Ewald   -8347.01707 -8347.03543 -8347.03543     0.00000     0.00000     0.00000
  Hartree  3080.68519  3080.68238  3080.68238     0.00000     0.00000     0.00000
  E(xc)   -2119.94996 -2119.94994 -2119.94994     0.00000     0.00000     0.00000
  Local     -55.30311   -55.28297   -55.28297     0.00000     0.00000     0.00000
  n-local   296.93814   296.73517   297.13818     0.00000     0.00000     0.00000
  augment   260.91789   260.91801   260.91784     0.00000    -0.00005    -0.00005
  Kinetic  5662.29247  5662.66152  5661.92300     0.00000     0.00000     0.00000
  Fock        0.00000     0.00000     0.00000     0.00000     0.00000     0.00000
  -------------------------------------------------------------------------------------
  Total      -0.03147    -0.03412    -0.03412     0.00000     0.00000     0.00000
  in kB      -0.04532    -0.04914    -0.04914     0.00000     0.00000     0.00000
  external pressure =       -0.05 kB  Pullay stress =        0.00 kB


 VOLUME and BASIS-vectors are now :
 -----------------------------------------------------------------------------
  energy-cutoff  :      525.11
  volume of cell :     1112.56
      direct lattice vectors                 reciprocal lattice vectors
    10.361945660  0.000000000  0.000000000     0.096506972  0.000000000  0.000000000
     0.000000000 10.361945660  0.000000000     0.000000000  0.096506972  0.000000000
     0.000000000  0.000000000 10.361945660     0.000000000  0.000000000  0.096506972

  length of vectors
    10.361945660 10.361945660 10.361945660     0.096506972  0.096506972  0.096506972


 FORCES acting on ions
    electron-ion (+dipol)            ewald-force                    non-local-force                 convergence-correction
 -----------------------------------------------------------------------------------------------
   0.197E+01 -.979E-14 -.181E-05   -.191E+01 -.542E-13 -.286E-13   -.113E+00 0.000E+00 0.662E-23   -.493E-05 0.194E-12 -.144E-12
   -.220E+00 0.455E-13 0.171E-05   0.284E+00 0.355E-14 -.268E-13   -.531E-01 0.000E+00 -.393E-23   -.291E-04 0.156E-12 -.219E-12
   0.947E-01 0.162E-14 0.263E-10   -.899E-01 -.266E-14 0.514E-14   -.357E-02 -.414E-24 -.103E-24   -.852E-06 -.324E-12 0.387E-14
   -.738E-01 -.471E-11 0.298E-10   0.706E-01 0.178E-14 -.144E-13   0.254E-02 0.103E-24 0.000E+00   0.788E-05 -.288E-12 0.804E-14
   0.947E-01 0.702E-14 -.323E-08   -.899E-01 0.355E-14 0.979E-14   -.357E-02 0.000E+00 -.517E-25   -.852E-06 0.922E-13 -.904E-13
   -.738E-01 -.649E-14 -.323E-08   0.706E-01 0.000E+00 0.904E-15   0.254E-02 0.207E-24 0.000E+00   0.788E-05 0.152E-12 0.318E-13
   0.350E-01 -.156E-13 -.469E-12   -.371E-01 -.533E-14 -.471E-13   0.156E-02 -.207E-24 0.000E+00   0.135E-04 -.233E-12 -.169E-12
   -.326E-01 -.615E-11 0.272E-11   0.347E-01 0.000E+00 0.151E-13   -.156E-02 0.000E+00 0.000E+00   -.205E-04 -.295E-12 -.805E-13
   0.166E+00 0.493E-03 0.493E-03   -.170E+00 -.514E-03 -.514E-03   0.247E-02 0.135E-04 0.135E-04   0.618E-05 0.265E-05 0.265E-05
   -.923E-01 -.149E-03 -.149E-03   0.954E-01 0.154E-03 0.154E-03   -.237E-02 -.398E-05 -.398E-05   -.415E-05 0.402E-06 0.402E-06
   0.166E+00 -.493E-03 0.493E-03   -.170E+00 0.514E-03 -.514E-03   0.247E-02 -.135E-04 0.135E-04   0.618E-05 -.265E-05 0.265E-05
   -.923E-01 0.149E-03 -.149E-03   0.954E-01 -.154E-03 0.154E-03   -.237E-02 0.398E-05 -.398E-05   -.415E-05 -.402E-06 0.402E-06
   0.166E+00 0.493E-03 -.493E-03   -.170E+00 -.514E-03 0.514E-03   0.247E-02 0.135E-04 -.135E-04   0.618E-05 0.265E-05 -.265E-05
   -.923E-01 -.149E-03 0.149E-03   0.954E-01 0.154E-03 -.154E-03   -.237E-02 -.398E-05 0.398E-05   -.415E-05 0.402E-06 -.402E-06
   0.166E+00 -.493E-03 -.493E-03   -.170E+00 0.514E-03 0.514E-03   0.247E-02 -.135E-04 -.135E-04   0.618E-05 -.265E-05 -.265E-05
   -.923E-01 0.149E-03 0.149E-03   0.954E-01 -.154E-03 -.154E-03   -.237E-02 0.398E-05 0.398E-05   -.415E-05 -.402E-06 -.402E-06
   -.135E+00 0.108E-13 -.237E+00   0.136E+00 -.391E-13 0.262E+00   -.403E-03 -.310E-24 -.183E-01   -.122E-06 0.898E-13 -.450E-05
   -.136E+00 -.266E-14 0.236E+00   0.137E+00 -.426E-13 -.260E+00   -.442E-03 0.207E-24 0.182E-01   -.153E-05 0.192E-12 0.151E-04
   -.424E-02 -.135E-12 -.238E-01   0.420E-02 -.622E-13 0.215E-01   0.324E-04 0.620E-24 0.169E-02   -.236E-05 -.238E-12 0.873E-05
   -.456E-02 -.121E-12 0.237E-01   0.453E-02 -.551E-13 -.215E-01   0.237E-04 0.000E+00 -.168E-02   -.151E-05 -.310E-12 -.108E-04
   -.135E+00 0.501E-14 0.237E+00   0.136E+00 -.302E-13 -.262E+00   -.403E-03 -.310E-24 0.183E-01   -.122E-06 0.130E-12 0.450E-05
   -.136E+00 -.299E-14 -.236E+00   0.137E+00 -.444E-13 0.260E+00   -.442E-03 -.310E-24 -.182E-01   -.153E-05 0.242E-12 -.151E-04
   -.424E-02 0.181E-11 0.238E-01   0.420E-02 -.515E-13 -.215E-01   0.324E-04 0.110E-24 -.169E-02   -.236E-05 -.275E-12 -.873E-05
   -.456E-02 -.771E-11 -.237E-01   0.453E-02 -.586E-13 0.215E-01   0.237E-04 -.336E-24 0.168E-02   -.151E-05 -.364E-12 0.108E-04
   -.135E+00 -.237E+00 0.927E-10   0.136E+00 0.262E+00 -.233E-13   -.403E-03 -.183E-01 0.000E+00   -.122E-06 -.450E-05 -.103E-12
   -.136E+00 0.236E+00 0.867E-10   0.137E+00 -.260E+00 -.375E-13   -.442E-03 0.182E-01 0.207E-24   -.153E-05 0.151E-04 -.818E-13
   -.135E+00 0.237E+00 0.915E-10   0.136E+00 -.262E+00 0.160E-14   -.403E-03 0.183E-01 0.000E+00   -.122E-06 0.450E-05 -.666E-13
   -.136E+00 -.236E+00 0.926E-10   0.137E+00 0.260E+00 0.516E-14   -.442E-03 -.182E-01 -.207E-24   -.153E-05 -.151E-04 -.464E-13
   -.424E-02 -.238E-01 0.221E-11   0.420E-02 0.215E-01 0.625E-14   0.324E-04 0.169E-02 0.000E+00   -.236E-05 0.873E-05 -.197E-13
   -.456E-02 0.237E-01 -.413E-11   0.453E-02 -.215E-01 0.205E-13   0.237E-04 -.168E-02 0.414E-24   -.151E-05 -.108E-04 -.103E-12
   -.424E-02 0.238E-01 0.293E-11   0.420E-02 -.215E-01 -.222E-13   0.324E-04 -.169E-02 0.000E+00   -.236E-05 -.873E-05 -.426E-13
   -.456E-02 -.237E-01 -.550E-11   0.453E-02 0.215E-01 -.186E-13   0.237E-04 0.168E-02 0.000E+00   -.151E-05 0.108E-04 -.161E-12
   -.845E+00 0.435E-13 -.445E-06   0.841E+00 0.133E-13 0.722E-14   0.181E-01 -.827E-24 0.000E+00   0.184E-04 0.145E-12 -.918E-13
   -.835E+00 0.703E-13 -.445E-06   0.832E+00 0.133E-13 -.699E-14   0.165E-01 0.827E-24 0.000E+00   0.113E-04 0.173E-12 -.317E-13
   -.740E-02 0.438E-11 -.116E-10   0.698E-02 0.107E-13 0.197E-13   0.889E-03 -.587E-23 0.000E+00   -.627E-06 -.221E-12 -.102E-13
   -.774E-02 -.478E-11 -.205E-10   0.734E-02 0.107E-13 0.197E-13   0.873E-03 -.165E-23 0.000E+00   -.326E-05 -.261E-12 0.362E-13
   -.740E-02 0.447E-13 -.261E-08   0.698E-02 0.142E-13 0.311E-13   0.889E-03 -.414E-24 0.000E+00   -.627E-06 0.110E-12 -.153E-13
   -.774E-02 0.444E-13 -.263E-08   0.734E-02 0.142E-13 0.311E-13   0.873E-03 0.827E-24 0.000E+00   -.326E-05 0.142E-12 -.446E-13
   -.835E-03 0.975E-12 0.271E-11   0.819E-03 0.107E-13 0.205E-13   0.109E-04 0.132E-22 0.000E+00   0.538E-06 -.187E-12 -.781E-13
   -.997E-03 -.180E-11 0.758E-12   0.982E-03 0.178E-13 0.134E-13   0.205E-05 0.000E+00 0.827E-24   0.655E-05 -.231E-12 -.103E-12
   -.258E-01 -.652E-01 -.652E-01   0.258E-01 0.661E-01 0.661E-01   -.266E-04 -.191E-02 -.191E-02   -.697E-06 0.390E-05 0.390E-05
   -.262E-01 0.649E-01 0.649E-01   0.263E-01 -.659E-01 -.659E-01   -.421E-04 0.189E-02 0.189E-02   0.370E-06 0.146E-05 0.146E-05
   -.258E-01 0.652E-01 -.652E-01   0.258E-01 -.661E-01 0.661E-01   -.266E-04 0.191E-02 -.191E-02   -.697E-06 -.390E-05 0.390E-05
   -.262E-01 -.649E-01 0.649E-01   0.263E-01 0.659E-01 -.659E-01   -.421E-04 -.189E-02 0.189E-02   0.370E-06 -.146E-05 0.146E-05
   -.258E-01 -.652E-01 0.652E-01   0.258E-01 0.661E-01 -.661E-01   -.266E-04 -.191E-02 0.191E-02   -.697E-06 0.390E-05 -.390E-05
   -.262E-01 0.649E-01 -.649E-01   0.263E-01 -.659E-01 0.659E-01   -.421E-04 0.189E-02 -.189E-02   0.370E-06 0.146E-05 -.146E-05
   -.258E-01 0.652E-01 0.652E-01   0.258E-01 -.661E-01 -.661E-01   -.266E-04 0.191E-02 0.191E-02   -.697E-06 -.390E-05 -.390E-05
   -.262E-01 -.649E-01 -.649E-01   0.263E-01 0.659E-01 0.659E-01   -.421E-04 -.189E-02 -.189E-02   0.370E-06 -.146E-05 -.146E-05
   0.374E+00 0.443E-13 0.229E-02   -.379E+00 0.222E-13 -.227E-02   0.821E-02 0.165E-23 -.676E-04   0.209E-05 0.140E-12 0.301E-05
   -.114E+00 0.358E-13 -.232E-03   0.116E+00 0.213E-13 0.235E-03   -.513E-02 -.248E-23 -.591E-05   0.394E-06 0.110E-12 0.599E-06
   0.448E-01 0.112E-12 0.567E-04   -.452E-01 0.231E-13 -.592E-04   0.716E-03 0.000E+00 0.734E-05   0.627E-05 -.224E-12 -.180E-06
   -.383E-01 -.922E-12 -.383E-04   0.386E-01 0.284E-13 0.407E-04   -.746E-03 0.827E-24 0.106E-05   -.336E-05 -.200E-12 -.390E-05
   0.374E+00 0.395E-13 -.229E-02   -.379E+00 0.329E-13 0.227E-02   0.821E-02 -.827E-24 0.676E-04   0.209E-05 0.151E-12 -.301E-05
   -.114E+00 0.349E-13 0.232E-03   0.116E+00 0.213E-13 -.235E-03   -.513E-02 0.248E-23 0.591E-05   0.394E-06 0.137E-12 -.599E-06
   0.448E-01 -.760E-15 -.567E-04   -.452E-01 0.169E-13 0.592E-04   0.716E-03 -.207E-24 -.734E-05   0.627E-05 -.234E-12 0.180E-06
   -.383E-01 -.573E-11 0.383E-04   0.386E-01 0.249E-13 -.407E-04   -.746E-03 -.331E-23 -.106E-05   -.336E-05 -.224E-12 0.390E-05
   0.374E+00 0.229E-02 -.219E-10   -.379E+00 -.227E-02 0.145E-13   0.821E-02 -.676E-04 -.414E-24   0.209E-05 0.301E-05 -.938E-14
   -.114E+00 -.232E-03 -.174E-10   0.116E+00 0.235E-03 -.411E-14   -.513E-02 -.591E-05 0.000E+00   0.394E-06 0.599E-06 -.708E-13
   0.374E+00 -.229E-02 -.219E-10   -.379E+00 0.227E-02 0.190E-13   0.821E-02 0.676E-04 0.000E+00   0.209E-05 -.301E-05 0.548E-14
   -.114E+00 0.232E-03 -.129E-10   0.116E+00 -.235E-03 0.243E-13   -.513E-02 0.591E-05 0.000E+00   0.394E-06 -.599E-06 -.415E-13
   0.448E-01 0.567E-04 0.473E-11   -.452E-01 -.592E-04 0.423E-13   0.716E-03 0.734E-05 0.000E+00   0.627E-05 -.180E-06 -.637E-13
   -.383E-01 -.383E-04 0.541E-11   0.386E-01 0.407E-04 0.148E-13   -.746E-03 0.106E-05 0.165E-23   -.336E-05 -.390E-05 -.389E-13
   0.448E-01 -.567E-04 0.461E-11   -.452E-01 0.592E-04 -.384E-14   0.716E-03 -.734E-05 -.165E-23   0.627E-05 0.180E-06 -.694E-13
   -.383E-01 0.383E-04 0.429E-11   0.386E-01 -.407E-04 0.148E-13   -.746E-03 -.106E-05 0.000E+00   -.336E-05 0.390E-05 -.583E-13
 -----------------------------------------------------------------------------------------------
   0.121E+00 -.233E-10 -.102E-05   0.249E-13 -.133E-12 0.202E-12   -.121E+00 0.108E-17 0.641E-18   0.835E-05 -.834E-13 -.682E-14
 
 
 POSITION                                       TOTAL-FORCE (eV/Angst)
 -----------------------------------------------------------------------------------
      0.01000      0.00000      0.00000        -0.048546      0.000000      0.000000
      5.18097      0.00000      0.00000         0.010819      0.000000      0.000000
      0.00000      5.18097      0.00000         0.001265      0.000000      0.000000
      5.18097      5.18097      0.00000        -0.000674      0.000000      0.000000
      0.00000      0.00000      5.18097         0.001265      0.000000      0.000000
      5.18097      0.00000      5.18097        -0.000674      0.000000      0.000000
      0.00000      5.18097      5.18097        -0.000493      0.000000      0.000000
      5.18097      5.18097      5.18097         0.000483      0.000000      0.000000
      0.00000      2.59049      2.59049        -0.000994     -0.000005     -0.000005
      5.18097      2.59049      2.59049         0.000735      0.000001      0.000001
      0.00000      7.77146      2.59049        -0.000994      0.000005     -0.000005
      5.18097      7.77146      2.59049         0.000735     -0.000001      0.000001
      0.00000      2.59049      7.77146        -0.000994     -0.000005      0.000005
      5.18097      2.59049      7.77146         0.000735      0.000001     -0.000001
      0.00000      7.77146      7.77146        -0.000994      0.000005      0.000005
      5.18097      7.77146      7.77146         0.000735     -0.000001     -0.000001
      2.59049      0.00000      2.59049         0.000899      0.000000      0.006174
      7.77146      0.00000      2.59049         0.000897      0.000000     -0.006128
      2.59049      5.18097      2.59049        -0.000014      0.000000     -0.000517
      7.77146      5.18097      2.59049        -0.000011      0.000000      0.000515
      2.59049      0.00000      7.77146         0.000899      0.000000     -0.006174
      7.77146      0.00000      7.77146         0.000897      0.000000      0.006128
      2.59049      5.18097      7.77146        -0.000014      0.000000      0.000517
      7.77146      5.18097      7.77146        -0.000011      0.000000     -0.000515
      2.59049      2.59049      0.00000         0.000899      0.006174      0.000000
      7.77146      2.59049      0.00000         0.000897     -0.006128      0.000000
      2.59049      7.77146      0.00000         0.000899     -0.006174      0.000000
      7.77146      7.77146      0.00000         0.000897      0.006128      0.000000
      2.59049      2.59049      5.18097        -0.000014     -0.000517      0.000000
      7.77146      2.59049      5.18097        -0.000011      0.000515      0.000000
      2.59049      7.77146      5.18097        -0.000014      0.000517      0.000000
      7.77146      7.77146      5.18097        -0.000011     -0.000515      0.000000
      2.59049      0.00000      0.00000         0.014427      0.000000      0.000000
      7.77146      0.00000      0.00000         0.013288      0.000000      0.000000
      2.59049      5.18097      0.00000         0.000468      0.000000      0.000000
      7.77146      5.18097      0.00000         0.000458      0.000000      0.000000
      2.59049      0.00000      5.18097         0.000468      0.000000      0.000000
      7.77146      0.00000      5.18097         0.000458      0.000000      0.000000
      2.59049      5.18097      5.18097        -0.000007      0.000000      0.000000
      7.77146      5.18097      5.18097        -0.000009      0.000000      0.000000
      2.59049      2.59049      2.59049        -0.000016     -0.000962     -0.000962
      7.77146      2.59049      2.59049        -0.000023      0.000956      0.000956
      2.59049      7.77146      2.59049        -0.000016      0.000962     -0.000962
      7.77146      7.77146      2.59049        -0.000023     -0.000956      0.000956
      2.59049      2.59049      7.77146        -0.000016     -0.000962      0.000962
      7.77146      2.59049      7.77146        -0.000023      0.000956     -0.000956
      2.59049      7.77146      7.77146        -0.000016      0.000962      0.000962
      7.77146      7.77146      7.77146        -0.000023     -0.000956     -0.000956
      0.00000      0.00000      2.59049         0.002994      0.000000     -0.000044
      5.18097      0.00000      2.59049        -0.002658      0.000000     -0.000003
      0.00000      5.18097      2.59049         0.000362      0.000000      0.000005
      5.18097      5.18097      2.59049        -0.000421      0.000000      0.000000
      0.00000      0.00000      7.77146         0.002994      0.000000      0.000044
      5.18097      0.00000      7.77146        -0.002658      0.000000      0.000003
      0.00000      5.18097      7.77146         0.000362      0.000000     -0.000005
      5.18097      5.18097      7.77146        -0.000421      0.000000      0.000000
      0.00000      2.59049      0.00000         0.002994     -0.000044      0.000000
      5.18097      2.59049      0.00000        -0.002658     -0.000003      0.000000
      0.00000      7.77146      0.00000         0.002994      0.000044      0.000000
      5.18097      7.77146      0.00000        -0.002658      0.000003      0.000000
      0.00000      2.59049      5.18097         0.000362      0.000005      0.000000
      5.18097      2.59049      5.18097        -0.000421      0.000000      0.000000
      0.00000      7.77146      5.18097         0.000362     -0.000005      0.000000
      5.18097      7.77146      5.18097        -0.000421      0.000000      0.000000
 -----------------------------------------------------------------------------------
    total drift:                                0.000179      0.000000     -0.000001


--------------------------------------------------------------------------------------------------------



  FREE ENERGIE OF THE ION-ELECTRON SYSTEM (eV)
  ---------------------------------------------------
  free  energy   TOTEN  =      -289.83099836 eV

  energy  without entropy=     -289.83099836  energy(sigma->0) =     -289.83099836
 


--------------------------------------------------------------------------------------------------------


    POTLOK:  cpu time    0.39: real time    0.39


--------------------------------------------------------------------------------------------------------


     LOOP+:  cpu time  470.91: real time  471.08
    4ORBIT:  cpu time    0.00: real time    0.00

 total amount of memory used by VASP on root node   133595. kBytes
========================================================================

   base      :      30000. kBytes
   nonl-proj :      14059. kBytes
   fftplans  :      33043. kBytes
   grid      :      15687. kBytes
   one-center:        105. kBytes
   wavefun   :      40701. kBytes
 
  
  
 General timing and accounting informations for this job:
 ========================================================
  
                  Total CPU time used (sec):      478.815
                            User time (sec):      465.676
                          System time (sec):       13.139
                         Elapsed time (sec):      479.198
  
                   Maximum memory used (kb):      193200.
                   Average memory used (kb):           0.
  
                          Minor page faults:      6903466
                          Major page faults:            0
                 Voluntary context switches:         2002
