<?xml version="1.0" encoding="ISO-8859-1"?>
<modeling>
 <generator>
  <i name="program" type="string">vasp </i>
  <i name="version" type="string">5.3.5  </i>
  <i name="subversion" type="string">31Mar14 (build Nov 07 2014 11:36:17) complex                          parallel </i>
  <i name="platform" type="string">LinuxIFC </i>
  <i name="date" type="string">2015 10 15 </i>
  <i name="time" type="string">02:20:11 </i>
 </generator>
 <incar>
  <i type="string" name="PREC">accurate</i>
  <i type="int" name="IALGO">    38</i>
  <i type="logical" name="ADDGRID"> T  </i>
  <i type="int" name="NELMIN">     5</i>
  <i type="int" name="IBRION">    -1</i>
  <i name="EDIFF">      0.00000001</i>
  <i name="ENCUT">    525.10770000</i>
  <i type="logical" name="LREAL"> F  </i>
  <i type="int" name="ISMEAR">     0</i>
  <i name="SIGMA">      0.01000000</i>
  <i type="logical" name="LWAVE"> F  </i>
  <i type="logical" name="LCHARG"> F  </i>
  <i type="string" name="GGA"> PS</i>
 </incar>
 <kpoints>
  <generation param="Gamma">
   <v type="int" name="divisions">       2        2        2 </v>
   <v name="usershift">      0.00000000       0.00000000       0.00000000 </v>
   <v name="genvec1">      0.50000000       0.00000000       0.00000000 </v>
   <v name="genvec2">      0.00000000       0.50000000       0.00000000 </v>
   <v name="genvec3">      0.00000000       0.00000000       0.50000000 </v>
   <v name="shift">      0.00000000       0.00000000       0.00000000 </v>
  </generation>
  <varray name="kpointlist" >
   <v>       0.00000000       0.00000000       0.00000000 </v>
   <v>       0.50000000       0.00000000       0.00000000 </v>
   <v>       0.00000000       0.50000000       0.00000000 </v>
   <v>       0.50000000       0.50000000       0.00000000 </v>
   <v>       0.00000000       0.50000000       0.50000000 </v>
   <v>       0.50000000       0.50000000       0.50000000 </v>
  </varray>
  <varray name="weights" >
   <v>       0.12500000 </v>
   <v>       0.12500000 </v>
   <v>       0.25000000 </v>
   <v>       0.25000000 </v>
   <v>       0.12500000 </v>
   <v>       0.12500000 </v>
  </varray>
 </kpoints>
 <parameters>
  <separator name="general" >
   <i type="string" name="SYSTEM">unknown system</i>
   <i type="logical" name="LCOMPAT"> F  </i>
  </separator>
  <separator name="electronic" >
   <i type="string" name="PREC">accura</i>
   <i name="ENMAX">    525.10770000</i>
   <i name="ENAUG">    758.78000000</i>
   <i name="EDIFF">      0.00000001</i>
   <i type="int" name="IALGO">    38</i>
   <i type="int" name="IWAVPR">    10</i>
   <i type="int" name="NBANDS">   268</i>
   <i name="NELECT">    448.00000000</i>
   <i type="int" name="TURBO">     0</i>
   <i type="int" name="IRESTART">     0</i>
   <i type="int" name="NREBOOT">     0</i>
   <i type="int" name="NMIN">     0</i>
   <i name="EREF">      0.00000000</i>
   <separator name="electronic smearing" >
    <i type="int" name="ISMEAR">     0</i>
    <i name="SIGMA">      0.01000000</i>
    <i name="KSPACING">      0.50000000</i>
    <i type="logical" name="KGAMMA"> T  </i>
   </separator>
   <separator name="electronic projectors" >
    <i type="logical" name="LREAL"> F  </i>
    <v name="ROPT">      0.00000000      0.00000000</v>
    <i type="int" name="LMAXPAW">  -100</i>
    <i type="int" name="LMAXMIX">     2</i>
    <i type="logical" name="NLSPLINE"> F  </i>
   </separator>
   <separator name="electronic startup" >
    <i type="int" name="ISTART">     0</i>
    <i type="int" name="ICHARG">     2</i>
    <i type="int" name="INIWAV">     1</i>
   </separator>
   <separator name="electronic spin" >
    <i type="int" name="ISPIN">     1</i>
    <i type="logical" name="LNONCOLLINEAR"> F  </i>
    <v name="MAGMOM">      1.00000000      1.00000000      1.00000000      1.00000000      1.00000000      1.00000000      1.00000000      1.00000000      1.00000000      1.00000000      1.00000000      1.00000000      1.00000000      1.00000000      1.00000000      1.00000000      1.00000000      1.00000000      1.00000000      1.00000000
      1.00000000      1.00000000      1.00000000      1.00000000      1.00000000      1.00000000      1.00000000      1.00000000      1.00000000      1.00000000      1.00000000      1.00000000      1.00000000      1.00000000      1.00000000      1.00000000      1.00000000      1.00000000      1.00000000      1.00000000
      1.00000000      1.00000000      1.00000000      1.00000000      1.00000000      1.00000000      1.00000000      1.00000000      1.00000000      1.00000000      1.00000000      1.00000000      1.00000000      1.00000000      1.00000000      1.00000000      1.00000000      1.00000000      1.00000000      1.00000000
      1.00000000      1.00000000      1.00000000      1.00000000</v>
    <i name="NUPDOWN">     -1.00000000</i>
    <i type="logical" name="LSORBIT"> F  </i>
    <v name="SAXIS">      0.00000000      0.00000000      1.00000000</v>
    <i type="logical" name="LSPIRAL"> F  </i>
    <v name="QSPIRAL">      0.00000000      0.00000000      0.00000000</v>
    <i type="logical" name="LZEROZ"> F  </i>
   </separator>
   <separator name="electronic exchange-correlation" >
    <i type="logical" name="LASPH"> F  </i>
    <i type="logical" name="LMETAGGA"> F  </i>
   </separator>
   <separator name="electronic convergence" >
    <i type="int" name="NELM">    60</i>
    <i type="int" name="NELMDL">    -5</i>
    <i type="int" name="NELMIN">     5</i>
    <i name="ENINI">    525.10770000</i>
    <separator name="electronic convergence detail" >
     <i type="logical" name="LDIAG"> T  </i>
     <i type="logical" name="LSUBROT"> F  </i>
     <i name="WEIMIN">      0.00000000</i>
     <i name="EBREAK">      0.00000000</i>
     <i name="DEPER">      0.30000000</i>
     <i type="int" name="NRMM">     4</i>
     <i name="TIME">      0.40000000</i>
    </separator>
   </separator>
   <separator name="electronic mixer" >
    <i name="AMIX">      0.40000000</i>
    <i name="BMIX">      1.00000000</i>
    <i name="AMIN">      0.10000000</i>
    <i name="AMIX_MAG">      1.60000000</i>
    <i name="BMIX_MAG">      1.00000000</i>
    <separator name="electronic mixer details" >
     <i type="int" name="IMIX">     4</i>
     <i type="int" name="MAXMIX">   -45</i>
     <i name="WC">    100.00000000</i>
     <i type="int" name="INIMIX">     1</i>
     <i type="int" name="MIXPRE">     1</i>
     <i type="int" name="MREMOVE">     5</i>
    </separator>
   </separator>
   <separator name="electronic dipolcorrection" >
    <i type="logical" name="LDIPOL"> F  </i>
    <i type="logical" name="LMONO"> F  </i>
    <i type="int" name="IDIPOL">     0</i>
    <i name="EPSILON">      1.00000000</i>
    <v name="DIPOL">   -100.00000000   -100.00000000   -100.00000000</v>
    <i name="EFIELD">      0.00000000</i>
   </separator>
  </separator>
  <separator name="grids" >
   <i type="int" name="NGX">    80</i>
   <i type="int" name="NGY">    80</i>
   <i type="int" name="NGZ">    80</i>
   <i type="int" name="NGXF">   160</i>
   <i type="int" name="NGYF">   160</i>
   <i type="int" name="NGZF">   160</i>
   <i type="logical" name="ADDGRID"> T  </i>
  </separator>
  <separator name="ionic" >
   <i type="int" name="NSW">     0</i>
   <i type="int" name="IBRION">    -1</i>
   <i type="int" name="ISIF">     2</i>
   <i name="PSTRESS">      0.00000000</i>
   <i name="EDIFFG">      0.00000010</i>
   <i type="int" name="NFREE">     0</i>
   <i name="POTIM">      0.50000000</i>
   <i name="SMASS">     -3.00000000</i>
   <i name="SCALEE">      1.00000000</i>
  </separator>
  <separator name="ionic md" >
   <i name="TEBEG">      0.00010000</i>
   <i name="TEEND">      0.00010000</i>
   <i type="int" name="NBLOCK">     1</i>
   <i type="int" name="KBLOCK">     1</i>
   <i type="int" name="NPACO">   256</i>
   <i name="APACO">     16.00000000</i>
  </separator>
  <separator name="symmetry" >
   <i type="int" name="ISYM">     2</i>
   <i name="SYMPREC">      0.00001000</i>
  </separator>
  <separator name="dos" >
   <i type="logical" name="LORBIT"> F  </i>
   <v name="RWIGS">     -1.00000000     -1.00000000</v>
   <i type="int" name="NEDOS">   301</i>
   <i name="EMIN">     10.00000000</i>
   <i name="EMAX">    -10.00000000</i>
   <i name="EFERMI">      0.00000000</i>
  </separator>
  <separator name="writing" >
   <i type="int" name="NWRITE">     2</i>
   <i type="logical" name="LWAVE"> F  </i>
   <i type="logical" name="LCHARG"> F  </i>
   <i type="logical" name="LPARD"> F  </i>
   <i type="logical" name="LVTOT"> F  </i>
   <i type="logical" name="LVHAR"> F  </i>
   <i type="logical" name="LELF"> F  </i>
   <i type="logical" name="LOPTICS"> F  </i>
   <v name="STM">      0.00000000      0.00000000      0.00000000      0.00000000      0.00000000      0.00000000      0.00000000</v>
  </separator>
  <separator name="performance" >
   <i type="int" name="NPAR">     4</i>
   <i type="int" name="NSIM">     4</i>
   <i type="int" name="NBLK">    -1</i>
   <i type="logical" name="LPLANE"> T  </i>
   <i type="logical" name="LSCALAPACK"> T  </i>
   <i type="logical" name="LSCAAWARE"> F  </i>
   <i type="logical" name="LSCALU"> F  </i>
   <i type="logical" name="LASYNC"> F  </i>
   <i type="logical" name="LORBITALREAL"> F  </i>
  </separator>
  <separator name="miscellaneous" >
   <i type="int" name="IDIOT">     3</i>
   <i type="logical" name="LMUSIC"> F  </i>
   <v name="POMASS">     24.30500000     32.06600000</v>
   <v name="DARWINR">      0.00000000      0.00000000</v>
   <v name="DARWINV">      1.00000000      1.00000000</v>
   <i type="logical" name="LCORR"> T  </i>
  </separator>
  <i type="logical" name="GGA_COMPAT"> T  </i>
  <i type="logical" name="LBERRY"> F  </i>
  <i type="int" name="ICORELEVEL">     0</i>
  <i type="logical" name="LDAU"> F  </i>
  <i type="int" name="I_CONSTRAINED_M">     0</i>
  <separator name="electronic exchange-correlation" >
   <i type="string" name="GGA">PS</i>
   <i type="int" name="VOSKOWN">     0</i>
   <i type="logical" name="LHFCALC"> F  </i>
   <i type="string" name="PRECFOCK"></i>
   <i type="logical" name="LSYMGRAD"> F  </i>
   <i type="logical" name="LHFONE"> F  </i>
   <i type="logical" name="LRHFCALC"> F  </i>
   <i type="logical" name="LTHOMAS"> F  </i>
   <i type="logical" name="LMODELHF"> F  </i>
   <i name="ENCUT4O">     -1.00000000</i>
   <i type="int" name="EXXOEP">     0</i>
   <i type="int" name="FOURORBIT">     0</i>
   <i name="AEXX">      0.00000000</i>
   <i name="HFALPHA">      0.00000000</i>
   <i name="MCALPHA">      0.00000000</i>
   <i name="ALDAX">      1.00000000</i>
   <i name="AGGAX">      1.00000000</i>
   <i name="ALDAC">      1.00000000</i>
   <i name="AGGAC">      1.00000000</i>
   <i type="int" name="NKREDX">     1</i>
   <i type="int" name="NKREDY">     1</i>
   <i type="int" name="NKREDZ">     1</i>
   <i type="logical" name="SHIFTRED"> F  </i>
   <i type="logical" name="ODDONLY"> F  </i>
   <i type="logical" name="EVENONLY"> F  </i>
   <i type="int" name="LMAXFOCK">     0</i>
   <i type="int" name="NMAXFOCKAE">     0</i>
   <i type="logical" name="LFOCKAEDFT"> F  </i>
   <i name="HFSCREEN">      0.00000000</i>
   <i name="HFSCREENC">      0.00000000</i>
   <i type="int" name="NBANDSGWLOW">     0</i>
  </separator>
  <separator name="vdW DFT" >
   <i type="logical" name="LUSE_VDW"> F  </i>
   <i name="Zab_VDW">     -0.84910000</i>
   <i name="PARAM1">      0.12340000</i>
   <i name="PARAM2">      1.00000000</i>
   <i name="PARAM3">      0.00000000</i>
  </separator>
  <separator name="model GW" >
   <i type="int" name="MODEL_GW">     0</i>
   <i name="MODEL_EPS0">     10.43026176</i>
   <i name="MODEL_ALPHA">      1.00000000</i>
  </separator>
  <separator name="linear response parameters" >
   <i type="logical" name="LEPSILON"> F  </i>
   <i type="logical" name="LRPA"> F  </i>
   <i type="logical" name="LNABLA"> F  </i>
   <i type="logical" name="LVEL"> F  </i>
   <i type="int" name="KINTER">     0</i>
   <i name="CSHIFT">      0.10000000</i>
   <i name="OMEGAMAX">     -1.00000000</i>
   <i name="DEG_THRESHOLD">      0.00200000</i>
  </separator>
  <separator name="orbital magnetization" >
   <i type="logical" name="NUCIND"> F  </i>
   <v name="MAGPOS">      0.00000000      0.00000000      0.00000000</v>
   <i type="logical" name="LNICSALL"> T  </i>
   <i type="logical" name="ORBITALMAG"> F  </i>
   <i type="logical" name="LMAGBLOCH"> F  </i>
   <i type="logical" name="LCHIMAG"> F  </i>
   <i type="logical" name="LGAUGE"> T  </i>
   <i type="int" name="MAGATOM">     0</i>
   <v name="MAGDIPOL">      0.00000000      0.00000000      0.00000000</v>
   <v name="AVECCONST">      0.00000000      0.00000000      0.00000000</v>
  </separator>
  <separator name="response functions" >
   <i type="logical" name="LADDER"> F  </i>
   <i type="logical" name="LFXC"> F  </i>
   <i type="logical" name="LHARTREE"> T  </i>
   <i type="int" name="IBSE">     0</i>
   <i type="logical" name="LTCTE"> F  </i>
   <i type="logical" name="LTETE"> F  </i>
   <i type="logical" name="LTRIPLET"> F  </i>
   <i type="logical" name="LFXCEPS"> F  </i>
   <i type="logical" name="LFXHEG"> F  </i>
   <i type="logical" name="L2ORDER"> F  </i>
   <i type="logical" name="LUSEW"> F  </i>
   <i name="ENCUTGW">     -2.00000000</i>
   <i name="ENCUTGWSOFT">     -2.00000000</i>
   <i name="ENCUTLF">     -1.00000000</i>
   <i type="int" name="LMAXMP2">    -1</i>
   <i name="SCISSOR">      0.00000000</i>
   <i type="int" name="NOMEGA">     0</i>
   <i type="int" name="NOMEGAR">     0</i>
   <i type="int" name="NBANDSGW">    -1</i>
   <i type="int" name="NBANDSO">    -1</i>
   <i type="int" name="NBANDSV">    -1</i>
   <i type="int" name="NELM">     1</i>
   <i type="int" name="DIM">     3</i>
   <i type="int" name="ANTIRES">     0</i>
   <i name="OMEGAMAX">    -30.00000000</i>
   <i name="OMEGAMIN">    -30.00000000</i>
   <i name="OMEGATL">   -200.00000000</i>
   <i type="int" name="OMEGAGRID">     0</i>
   <i name="CSHIFT">     -0.10000000</i>
   <i type="logical" name="SELFENERGY"> F  </i>
   <i type="logical" name="LSPECTRAL"> F  </i>
   <i type="logical" name="ODDONLYGW"> F  </i>
   <i type="logical" name="EVENONLYGW"> F  </i>
   <i type="int" name="NKREDLFX">     1</i>
   <i type="int" name="NKREDLFY">     1</i>
   <i type="int" name="NKREDLFZ">     1</i>
   <i type="int" name="MAXMEM">  1800</i>
   <i type="int" name="TELESCOPE">     0</i>
   <i type="int" name="TAUPAR">     1</i>
  </separator>
  <separator name="External order field" >
   <i name="OFIELD_KAPPA">      0.00000000</i>
   <v name="OFIELD_K">      0.00000000      0.00000000      0.00000000</v>
   <i name="OFIELD_Q6_NEAR">      0.00000000</i>
   <i name="OFIELD_Q6_FAR">      0.00000000</i>
   <i name="OFIELD_A">      0.00000000</i>
  </separator>
 </parameters>
 <atominfo>
  <atoms>      64 </atoms>
  <types>       2 </types>
  <array name="atoms" >
   <dimension dim="1">ion</dimension>
   <field type="string">element</field>
   <field type="int">atomtype</field>
   <set>
    <rc><c>Mg</c><c>   1</c></rc>
    <rc><c>Mg</c><c>   1</c></rc>
    <rc><c>Mg</c><c>   1</c></rc>
    <rc><c>Mg</c><c>   1</c></rc>
    <rc><c>Mg</c><c>   1</c></rc>
    <rc><c>Mg</c><c>   1</c></rc>
    <rc><c>Mg</c><c>   1</c></rc>
    <rc><c>Mg</c><c>   1</c></rc>
    <rc><c>Mg</c><c>   1</c></rc>
    <rc><c>Mg</c><c>   1</c></rc>
    <rc><c>Mg</c><c>   1</c></rc>
    <rc><c>Mg</c><c>   1</c></rc>
    <rc><c>Mg</c><c>   1</c></rc>
    <rc><c>Mg</c><c>   1</c></rc>
    <rc><c>Mg</c><c>   1</c></rc>
    <rc><c>Mg</c><c>   1</c></rc>
    <rc><c>Mg</c><c>   1</c></rc>
    <rc><c>Mg</c><c>   1</c></rc>
    <rc><c>Mg</c><c>   1</c></rc>
    <rc><c>Mg</c><c>   1</c></rc>
    <rc><c>Mg</c><c>   1</c></rc>
    <rc><c>Mg</c><c>   1</c></rc>
    <rc><c>Mg</c><c>   1</c></rc>
    <rc><c>Mg</c><c>   1</c></rc>
    <rc><c>Mg</c><c>   1</c></rc>
    <rc><c>Mg</c><c>   1</c></rc>
    <rc><c>Mg</c><c>   1</c></rc>
    <rc><c>Mg</c><c>   1</c></rc>
    <rc><c>Mg</c><c>   1</c></rc>
    <rc><c>Mg</c><c>   1</c></rc>
    <rc><c>Mg</c><c>   1</c></rc>
    <rc><c>Mg</c><c>   1</c></rc>
    <rc><c>S </c><c>   2</c></rc>
    <rc><c>S </c><c>   2</c></rc>
    <rc><c>S </c><c>   2</c></rc>
    <rc><c>S </c><c>   2</c></rc>
    <rc><c>S </c><c>   2</c></rc>
    <rc><c>S </c><c>   2</c></rc>
    <rc><c>S </c><c>   2</c></rc>
    <rc><c>S </c><c>   2</c></rc>
    <rc><c>S </c><c>   2</c></rc>
    <rc><c>S </c><c>   2</c></rc>
    <rc><c>S </c><c>   2</c></rc>
    <rc><c>S </c><c>   2</c></rc>
    <rc><c>S </c><c>   2</c></rc>
    <rc><c>S </c><c>   2</c></rc>
    <rc><c>S </c><c>   2</c></rc>
    <rc><c>S </c><c>   2</c></rc>
    <rc><c>S </c><c>   2</c></rc>
    <rc><c>S </c><c>   2</c></rc>
    <rc><c>S </c><c>   2</c></rc>
    <rc><c>S </c><c>   2</c></rc>
    <rc><c>S </c><c>   2</c></rc>
    <rc><c>S </c><c>   2</c></rc>
    <rc><c>S </c><c>   2</c></rc>
    <rc><c>S </c><c>   2</c></rc>
    <rc><c>S </c><c>   2</c></rc>
    <rc><c>S </c><c>   2</c></rc>
    <rc><c>S </c><c>   2</c></rc>
    <rc><c>S </c><c>   2</c></rc>
    <rc><c>S </c><c>   2</c></rc>
    <rc><c>S </c><c>   2</c></rc>
    <rc><c>S </c><c>   2</c></rc>
    <rc><c>S </c><c>   2</c></rc>
   </set>
  </array>
  <array name="atomtypes" >
   <dimension dim="1">type</dimension>
   <field type="int">atomspertype</field>
   <field type="string">element</field>
   <field>mass</field>
   <field>valence</field>
   <field type="string">pseudopotential</field>
   <set>
    <rc><c>  32</c><c>Mg</c><c>     24.30500000</c><c>      8.00000000</c><c>  PAW_PBE Mg_pv 13Apr2007               </c></rc>
    <rc><c>  32</c><c>S </c><c>     32.06600000</c><c>      6.00000000</c><c>  PAW_PBE S 06Sep2000                   </c></rc>
   </set>
  </array>
 </atominfo>
 <structure name="initialpos" >
  <crystal>
   <varray name="basis" >
    <v>      10.36194566       0.00000000       0.00000000 </v>
    <v>       0.00000000      10.36194566       0.00000000 </v>
    <v>       0.00000000       0.00000000      10.36194566 </v>
   </varray>
   <i name="volume">   1112.56125439 </i>
   <varray name="rec_basis" >
    <v>       0.09650697       0.00000000       0.00000000 </v>
    <v>       0.00000000       0.09650697       0.00000000 </v>
    <v>       0.00000000       0.00000000       0.09650697 </v>
   </varray>
  </crystal>
  <varray name="positions" >
   <v>       0.00096507       0.00000000       0.00000000 </v>
   <v>       0.50000000       0.00000000       0.00000000 </v>
   <v>       0.00000000       0.50000000       0.00000000 </v>
   <v>       0.50000000       0.50000000       0.00000000 </v>
   <v>       0.00000000       0.00000000       0.50000000 </v>
   <v>       0.50000000       0.00000000       0.50000000 </v>
   <v>       0.00000000       0.50000000       0.50000000 </v>
   <v>       0.50000000       0.50000000       0.50000000 </v>
   <v>       0.00000000       0.25000000       0.25000000 </v>
   <v>       0.50000000       0.25000000       0.25000000 </v>
   <v>       0.00000000       0.75000000       0.25000000 </v>
   <v>       0.50000000       0.75000000       0.25000000 </v>
   <v>       0.00000000       0.25000000       0.75000000 </v>
   <v>       0.50000000       0.25000000       0.75000000 </v>
   <v>       0.00000000       0.75000000       0.75000000 </v>
   <v>       0.50000000       0.75000000       0.75000000 </v>
   <v>       0.25000000       0.00000000       0.25000000 </v>
   <v>       0.75000000       0.00000000       0.25000000 </v>
   <v>       0.25000000       0.50000000       0.25000000 </v>
   <v>       0.75000000       0.50000000       0.25000000 </v>
   <v>       0.25000000       0.00000000       0.75000000 </v>
   <v>       0.75000000       0.00000000       0.75000000 </v>
   <v>       0.25000000       0.50000000       0.75000000 </v>
   <v>       0.75000000       0.50000000       0.75000000 </v>
   <v>       0.25000000       0.25000000       0.00000000 </v>
   <v>       0.75000000       0.25000000       0.00000000 </v>
   <v>       0.25000000       0.75000000       0.00000000 </v>
   <v>       0.75000000       0.75000000       0.00000000 </v>
   <v>       0.25000000       0.25000000       0.50000000 </v>
   <v>       0.75000000       0.25000000       0.50000000 </v>
   <v>       0.25000000       0.75000000       0.50000000 </v>
   <v>       0.75000000       0.75000000       0.50000000 </v>
   <v>       0.25000000       0.00000000       0.00000000 </v>
   <v>       0.75000000       0.00000000       0.00000000 </v>
   <v>       0.25000000       0.50000000       0.00000000 </v>
   <v>       0.75000000       0.50000000       0.00000000 </v>
   <v>       0.25000000       0.00000000       0.50000000 </v>
   <v>       0.75000000       0.00000000       0.50000000 </v>
   <v>       0.25000000       0.50000000       0.50000000 </v>
   <v>       0.75000000       0.50000000       0.50000000 </v>
   <v>       0.25000000       0.25000000       0.25000000 </v>
   <v>       0.75000000       0.25000000       0.25000000 </v>
   <v>       0.25000000       0.75000000       0.25000000 </v>
   <v>       0.75000000       0.75000000       0.25000000 </v>
   <v>       0.25000000       0.25000000       0.75000000 </v>
   <v>       0.75000000       0.25000000       0.75000000 </v>
   <v>       0.25000000       0.75000000       0.75000000 </v>
   <v>       0.75000000       0.75000000       0.75000000 </v>
   <v>       0.00000000       0.00000000       0.25000000 </v>
   <v>       0.50000000       0.00000000       0.25000000 </v>
   <v>       0.00000000       0.50000000       0.25000000 </v>
   <v>       0.50000000       0.50000000       0.25000000 </v>
   <v>       0.00000000       0.00000000       0.75000000 </v>
   <v>       0.50000000       0.00000000       0.75000000 </v>
   <v>       0.00000000       0.50000000       0.75000000 </v>
   <v>       0.50000000       0.50000000       0.75000000 </v>
   <v>       0.00000000       0.25000000       0.00000000 </v>
   <v>       0.50000000       0.25000000       0.00000000 </v>
   <v>       0.00000000       0.75000000       0.00000000 </v>
   <v>       0.50000000       0.75000000       0.00000000 </v>
   <v>       0.00000000       0.25000000       0.50000000 </v>
   <v>       0.50000000       0.25000000       0.50000000 </v>
   <v>       0.00000000       0.75000000       0.50000000 </v>
   <v>       0.50000000       0.75000000       0.50000000 </v>
  </varray>
 </structure>
 <calculation>
  <scstep>
   <time name="dav">   24.48   24.48</time>
   <time name="total">   24.87   24.87</time>
   <energy>
    <i name="alphaZ">   1221.40497399 </i>
    <i name="ewald"> -25040.93906978 </i>
    <i name="hartreedc">  -9314.42290092 </i>
    <i name="XCdc">   1275.11158183 </i>
    <i name="pawpsdc">  27701.73694044 </i>
    <i name="pawaedc"> -31358.41014717 </i>
    <i name="eentropy">     -0.00141012 </i>
    <i name="bandstr">  -2759.59926783 </i>
    <i name="atom">  42573.64344421 </i>
    <i name="e_fr_energy">   4298.52414466 </i>
    <i name="e_wo_entrp">   4298.52555477 </i>
    <i name="e_0_energy">   4298.52484972 </i>
   </energy>
  </scstep>
  <scstep>
   <time name="dav">   24.19   24.18</time>
   <time name="total">   24.19   24.18</time>
   <energy>
    <i name="e_fr_energy">    101.18753839 </i>
    <i name="e_wo_entrp">    101.18753839 </i>
    <i name="e_0_energy">    101.18753839 </i>
   </energy>
  </scstep>
  <scstep>
   <time name="dav">   24.54   24.54</time>
   <time name="total">   24.55   24.54</time>
   <energy>
    <i name="e_fr_energy">   -282.50047877 </i>
    <i name="e_wo_entrp">   -282.50047877 </i>
    <i name="e_0_energy">   -282.50047877 </i>
   </energy>
  </scstep>
  <scstep>
   <time name="dav">   23.37   23.38</time>
   <time name="total">   23.38   23.38</time>
   <energy>
    <i name="e_fr_energy">   -300.83360495 </i>
    <i name="e_wo_entrp">   -300.83360495 </i>
    <i name="e_0_energy">   -300.83360495 </i>
   </energy>
  </scstep>
  <scstep>
   <time name="dav">   25.03   25.03</time>
   <time name="total">   26.03   26.02</time>
   <energy>
    <i name="e_fr_energy">   -301.66599166 </i>
    <i name="e_wo_entrp">   -301.66599166 </i>
    <i name="e_0_energy">   -301.66599166 </i>
   </energy>
  </scstep>
  <scstep>
   <time name="dav">   22.91   22.90</time>
   <time name="total">   24.31   24.31</time>
   <energy>
    <i name="e_fr_energy">   -291.18270455 </i>
    <i name="e_wo_entrp">   -291.18270455 </i>
    <i name="e_0_energy">   -291.18270455 </i>
   </energy>
  </scstep>
  <scstep>
   <time name="dav">   23.95   23.96</time>
   <time name="total">   25.36   25.38</time>
   <energy>
    <i name="e_fr_energy">   -289.91399994 </i>
    <i name="e_wo_entrp">   -289.91399994 </i>
    <i name="e_0_energy">   -289.91399994 </i>
   </energy>
  </scstep>
  <scstep>
   <time name="dav">   22.54   22.55</time>
   <time name="total">   23.95   23.96</time>
   <energy>
    <i name="e_fr_energy">   -289.83589663 </i>
    <i name="e_wo_entrp">   -289.83589663 </i>
    <i name="e_0_energy">   -289.83589663 </i>
   </energy>
  </scstep>
  <scstep>
   <time name="dav">   23.43   23.45</time>
   <time name="total">   24.85   24.87</time>
   <energy>
    <i name="e_fr_energy">   -289.83080441 </i>
    <i name="e_wo_entrp">   -289.83080441 </i>
    <i name="e_0_energy">   -289.83080441 </i>
   </energy>
  </scstep>
  <scstep>
   <time name="dav">   23.23   23.24</time>
   <time name="total">   24.64   24.65</time>
   <energy>
    <i name="e_fr_energy">   -289.83125367 </i>
    <i name="e_wo_entrp">   -289.83125367 </i>
    <i name="e_0_energy">   -289.83125367 </i>
   </energy>
  </scstep>
  <scstep>
   <time name="dav">   22.97   22.98</time>
   <time name="total">   24.38   24.39</time>
   <energy>
    <i name="e_fr_energy">   -289.83099396 </i>
    <i name="e_wo_entrp">   -289.83099396 </i>
    <i name="e_0_energy">   -289.83099396 </i>
   </energy>
  </scstep>
  <scstep>
   <time name="dav">   23.47   23.49</time>
   <time name="total">   24.88   24.90</time>
   <energy>
    <i name="e_fr_energy">   -289.83099605 </i>
    <i name="e_wo_entrp">   -289.83099605 </i>
    <i name="e_0_energy">   -289.83099605 </i>
   </energy>
  </scstep>
  <scstep>
   <time name="dav">   23.38   23.39</time>
   <time name="total">   24.80   24.81</time>
   <energy>
    <i name="e_fr_energy">   -289.83099885 </i>
    <i name="e_wo_entrp">   -289.83099885 </i>
    <i name="e_0_energy">   -289.83099885 </i>
   </energy>
  </scstep>
  <scstep>
   <time name="dav">   22.79   22.80</time>
   <time name="total">   24.21   24.23</time>
   <energy>
    <i name="e_fr_energy">   -289.83099854 </i>
    <i name="e_wo_entrp">   -289.83099854 </i>
    <i name="e_0_energy">   -289.83099854 </i>
   </energy>
  </scstep>
  <scstep>
   <time name="dav">   20.64   20.65</time>
   <time name="total">   22.04   22.05</time>
   <energy>
    <i name="e_fr_energy">   -289.83099848 </i>
    <i name="e_wo_entrp">   -289.83099848 </i>
    <i name="e_0_energy">   -289.83099848 </i>
   </energy>
  </scstep>
  <scstep>
   <time name="dav">   19.43   19.44</time>
   <time name="total">   20.83   20.84</time>
   <energy>
    <i name="e_fr_energy">   -289.83099852 </i>
    <i name="e_wo_entrp">   -289.83099852 </i>
    <i name="e_0_energy">   -289.83099852 </i>
   </energy>
  </scstep>
  <scstep>
   <time name="dav">   15.44   15.45</time>
   <time name="total">   16.85   16.85</time>
   <energy>
    <i name="e_fr_energy">   -289.83099833 </i>
    <i name="e_wo_entrp">   -289.83099833 </i>
    <i name="e_0_energy">   -289.83099833 </i>
   </energy>
  </scstep>
  <scstep>
   <time name="dav">   15.19   15.20</time>
   <time name="total">   16.58   16.59</time>
   <energy>
    <i name="e_fr_energy">   -289.83099836 </i>
    <i name="e_wo_entrp">   -289.83099836 </i>
    <i name="e_0_energy">   -289.83099836 </i>
   </energy>
  </scstep>
  <scstep>
   <time name="dav">   15.04   15.04</time>
   <time name="total">   15.42   15.43</time>
   <energy>
    <i name="alphaZ">   1221.40497399 </i>
    <i name="ewald"> -25040.93906978 </i>
    <i name="hartreedc">  -9242.04660337 </i>
    <i name="XCdc">   1291.28060549 </i>
    <i name="pawpsdc">  37428.43839278 </i>
    <i name="pawaedc"> -41052.31599591 </i>
    <i name="eentropy">      0.00000000 </i>
    <i name="bandstr">  -7469.29674577 </i>
    <i name="atom">  42573.64344421 </i>
    <i name="e_fr_energy">   -289.83099836 </i>
    <i name="e_wo_entrp">   -289.83099836 </i>
    <i name="e_0_energy">   -289.83099836 </i>
   </energy>
  </scstep>
  <structure>
   <crystal>
    <varray name="basis" >
     <v>      10.36194566       0.00000000       0.00000000 </v>
     <v>       0.00000000      10.36194566       0.00000000 </v>
     <v>       0.00000000       0.00000000      10.36194566 </v>
    </varray>
    <i name="volume">   1112.56125439 </i>
    <varray name="rec_basis" >
     <v>       0.09650697       0.00000000       0.00000000 </v>
     <v>       0.00000000       0.09650697       0.00000000 </v>
     <v>       0.00000000       0.00000000       0.09650697 </v>
    </varray>
   </crystal>
   <varray name="positions" >
    <v>       0.00096507       0.00000000       0.00000000 </v>
    <v>       0.50000000       0.00000000       0.00000000 </v>
    <v>       0.00000000       0.50000000       0.00000000 </v>
    <v>       0.50000000       0.50000000       0.00000000 </v>
    <v>       0.00000000       0.00000000       0.50000000 </v>
    <v>       0.50000000       0.00000000       0.50000000 </v>
    <v>       0.00000000       0.50000000       0.50000000 </v>
    <v>       0.50000000       0.50000000       0.50000000 </v>
    <v>       0.00000000       0.25000000       0.25000000 </v>
    <v>       0.50000000       0.25000000       0.25000000 </v>
    <v>       0.00000000       0.75000000       0.25000000 </v>
    <v>       0.50000000       0.75000000       0.25000000 </v>
    <v>       0.00000000       0.25000000       0.75000000 </v>
    <v>       0.50000000       0.25000000       0.75000000 </v>
    <v>       0.00000000       0.75000000       0.75000000 </v>
    <v>       0.50000000       0.75000000       0.75000000 </v>
    <v>       0.25000000       0.00000000       0.25000000 </v>
    <v>       0.75000000       0.00000000       0.25000000 </v>
    <v>       0.25000000       0.50000000       0.25000000 </v>
    <v>       0.75000000       0.50000000       0.25000000 </v>
    <v>       0.25000000       0.00000000       0.75000000 </v>
    <v>       0.75000000       0.00000000       0.75000000 </v>
    <v>       0.25000000       0.50000000       0.75000000 </v>
    <v>       0.75000000       0.50000000       0.75000000 </v>
    <v>       0.25000000       0.25000000       0.00000000 </v>
    <v>       0.75000000       0.25000000       0.00000000 </v>
    <v>       0.25000000       0.75000000       0.00000000 </v>
    <v>       0.75000000       0.75000000       0.00000000 </v>
    <v>       0.25000000       0.25000000       0.50000000 </v>
    <v>       0.75000000       0.25000000       0.50000000 </v>
    <v>       0.25000000       0.75000000       0.50000000 </v>
    <v>       0.75000000       0.75000000       0.50000000 </v>
    <v>       0.25000000       0.00000000       0.00000000 </v>
    <v>       0.75000000       0.00000000       0.00000000 </v>
    <v>       0.25000000       0.50000000       0.00000000 </v>
    <v>       0.75000000       0.50000000       0.00000000 </v>
    <v>       0.25000000       0.00000000       0.50000000 </v>
    <v>       0.75000000       0.00000000       0.50000000 </v>
    <v>       0.25000000       0.50000000       0.50000000 </v>
    <v>       0.75000000       0.50000000       0.50000000 </v>
    <v>       0.25000000       0.25000000       0.25000000 </v>
    <v>       0.75000000       0.25000000       0.25000000 </v>
    <v>       0.25000000       0.75000000       0.25000000 </v>
    <v>       0.75000000       0.75000000       0.25000000 </v>
    <v>       0.25000000       0.25000000       0.75000000 </v>
    <v>       0.75000000       0.25000000       0.75000000 </v>
    <v>       0.25000000       0.75000000       0.75000000 </v>
    <v>       0.75000000       0.75000000       0.75000000 </v>
    <v>       0.00000000       0.00000000       0.25000000 </v>
    <v>       0.50000000       0.00000000       0.25000000 </v>
    <v>       0.00000000       0.50000000       0.25000000 </v>
    <v>       0.50000000       0.50000000       0.25000000 </v>
    <v>       0.00000000       0.00000000       0.75000000 </v>
    <v>       0.50000000       0.00000000       0.75000000 </v>
    <v>       0.00000000       0.50000000       0.75000000 </v>
    <v>       0.50000000       0.50000000       0.75000000 </v>
    <v>       0.00000000       0.25000000       0.00000000 </v>
    <v>       0.50000000       0.25000000       0.00000000 </v>
    <v>       0.00000000       0.75000000       0.00000000 </v>
    <v>       0.50000000       0.75000000       0.00000000 </v>
    <v>       0.00000000       0.25000000       0.50000000 </v>
    <v>       0.50000000       0.25000000       0.50000000 </v>
    <v>       0.00000000       0.75000000       0.50000000 </v>
    <v>       0.50000000       0.75000000       0.50000000 </v>
   </varray>
  </structure>
  <varray name="forces" >
   <v>      -0.04854566       0.00000000       0.00000000 </v>
   <v>       0.01081934       0.00000000       0.00000000 </v>
   <v>       0.00126520       0.00000000       0.00000000 </v>
   <v>      -0.00067382       0.00000000       0.00000000 </v>
   <v>       0.00126520       0.00000000       0.00000000 </v>
   <v>      -0.00067382       0.00000000       0.00000000 </v>
   <v>      -0.00049278       0.00000000       0.00000000 </v>
   <v>       0.00048255       0.00000000       0.00000000 </v>
   <v>      -0.00099397      -0.00000527      -0.00000527 </v>
   <v>       0.00073538       0.00000122       0.00000122 </v>
   <v>      -0.00099397       0.00000527      -0.00000527 </v>
   <v>       0.00073538      -0.00000122       0.00000122 </v>
   <v>      -0.00099397      -0.00000527       0.00000527 </v>
   <v>       0.00073538       0.00000122      -0.00000122 </v>
   <v>      -0.00099397       0.00000527       0.00000527 </v>
   <v>       0.00073538      -0.00000122      -0.00000122 </v>
   <v>       0.00089856       0.00000000       0.00617357 </v>
   <v>       0.00089653       0.00000000      -0.00612781 </v>
   <v>      -0.00001380       0.00000000      -0.00051724 </v>
   <v>      -0.00001103       0.00000000       0.00051495 </v>
   <v>       0.00089856       0.00000000      -0.00617357 </v>
   <v>       0.00089653       0.00000000       0.00612781 </v>
   <v>      -0.00001380       0.00000000       0.00051724 </v>
   <v>      -0.00001103       0.00000000      -0.00051495 </v>
   <v>       0.00089856       0.00617357       0.00000000 </v>
   <v>       0.00089653      -0.00612781       0.00000000 </v>
   <v>       0.00089856      -0.00617357       0.00000000 </v>
   <v>       0.00089653       0.00612781       0.00000000 </v>
   <v>      -0.00001380      -0.00051724       0.00000000 </v>
   <v>      -0.00001103       0.00051495       0.00000000 </v>
   <v>      -0.00001380       0.00051724       0.00000000 </v>
   <v>      -0.00001103      -0.00051495       0.00000000 </v>
   <v>       0.01442661       0.00000000       0.00000000 </v>
   <v>       0.01328843       0.00000000       0.00000000 </v>
   <v>       0.00046796       0.00000000       0.00000000 </v>
   <v>       0.00045839       0.00000000       0.00000000 </v>
   <v>       0.00046796       0.00000000       0.00000000 </v>
   <v>       0.00045839       0.00000000       0.00000000 </v>
   <v>      -0.00000698       0.00000000       0.00000000 </v>
   <v>      -0.00000921       0.00000000       0.00000000 </v>
   <v>      -0.00001596      -0.00096241      -0.00096241 </v>
   <v>      -0.00002268       0.00095645       0.00095645 </v>
   <v>      -0.00001596       0.00096241      -0.00096241 </v>
   <v>      -0.00002268      -0.00095645       0.00095645 </v>
   <v>      -0.00001596      -0.00096241       0.00096241 </v>
   <v>      -0.00002268       0.00095645      -0.00095645 </v>
   <v>      -0.00001596       0.00096241       0.00096241 </v>
   <v>      -0.00002268      -0.00095645      -0.00095645 </v>
   <v>       0.00299405       0.00000000      -0.00004412 </v>
   <v>      -0.00265762       0.00000000      -0.00000257 </v>
   <v>       0.00036238       0.00000000       0.00000456 </v>
   <v>      -0.00042128       0.00000000      -0.00000046 </v>
   <v>       0.00299405       0.00000000       0.00004412 </v>
   <v>      -0.00265762       0.00000000       0.00000257 </v>
   <v>       0.00036238       0.00000000      -0.00000456 </v>
   <v>      -0.00042128       0.00000000       0.00000046 </v>
   <v>       0.00299405      -0.00004412       0.00000000 </v>
   <v>      -0.00265762      -0.00000257       0.00000000 </v>
   <v>       0.00299405       0.00004412       0.00000000 </v>
   <v>      -0.00265762       0.00000257       0.00000000 </v>
   <v>       0.00036238       0.00000456       0.00000000 </v>
   <v>      -0.00042128      -0.00000046       0.00000000 </v>
   <v>       0.00036238      -0.00000456       0.00000000 </v>
   <v>      -0.00042128       0.00000046       0.00000000 </v>
  </varray>
  <varray name="stress" >
   <v>      -0.04532242       0.00000000       0.00000000 </v>
   <v>       0.00000000      -0.04913654       0.00000000 </v>
   <v>       0.00000000       0.00000000      -0.04913654 </v>
  </varray>
  <energy>
   <i name="e_fr_energy">   -289.83099836 </i>
   <i name="e_wo_entrp">   -289.83099836 </i>
   <i name="e_0_energy">      0.00000000 </i>
  </energy>
  <time name="totalsc">  470.91  471.08</time>
  <eigenvalues>
   <array>
    <dimension dim="1">band</dimension>
    <dimension dim="2">kpoint</dimension>
    <dimension dim="3">spin</dimension>
    <field>eigene</field>
    <field>occ</field>
    <set>
     <set comment="spin 1">
      <set comment="kpoint 1">
       <r>  -37.6439    1.0000 </r>
       <r>  -37.6438    1.0000 </r>
       <r>  -37.6435    1.0000 </r>
       <r>  -37.6435    1.0000 </r>
       <r>  -37.6429    1.0000 </r>
       <r>  -37.6429    1.0000 </r>
       <r>  -37.6427    1.0000 </r>
       <r>  -37.6417    1.0000 </r>
       <r>  -37.6417    1.0000 </r>
       <r>  -37.6416    1.0000 </r>
       <r>  -37.6416    1.0000 </r>
       <r>  -37.6416    1.0000 </r>
       <r>  -37.6415    1.0000 </r>
       <r>  -37.6415    1.0000 </r>
       <r>  -37.6414    1.0000 </r>
       <r>  -37.6411    1.0000 </r>
       <r>  -37.6411    1.0000 </r>
       <r>  -37.6411    1.0000 </r>
       <r>  -37.6411    1.0000 </r>
       <r>  -37.6411    1.0000 </r>
       <r>  -37.6409    1.0000 </r>
       <r>  -37.6407    1.0000 </r>
       <r>  -37.6406    1.0000 </r>
       <r>  -37.6405    1.0000 </r>
       <r>  -37.6405    1.0000 </r>
       <r>  -37.6404    1.0000 </r>
       <r>  -37.6404    1.0000 </r>
       <r>  -37.6404    1.0000 </r>
       <r>  -37.6403    1.0000 </r>
       <r>  -37.6403    1.0000 </r>
       <r>  -37.6403    1.0000 </r>
       <r>  -37.6395    1.0000 </r>
       <r>  -37.6393    1.0000 </r>
       <r>  -37.6393    1.0000 </r>
       <r>  -37.6393    1.0000 </r>
       <r>  -37.6392    1.0000 </r>
       <r>  -37.6392    1.0000 </r>
       <r>  -37.6391    1.0000 </r>
       <r>  -37.6391    1.0000 </r>
       <r>  -37.6391    1.0000 </r>
       <r>  -37.6390    1.0000 </r>
       <r>  -37.6390    1.0000 </r>
       <r>  -37.6390    1.0000 </r>
       <r>  -37.6388    1.0000 </r>
       <r>  -37.6388    1.0000 </r>
       <r>  -37.6388    1.0000 </r>
       <r>  -37.6388    1.0000 </r>
       <r>  -37.6388    1.0000 </r>
       <r>  -37.6388    1.0000 </r>
       <r>  -37.6387    1.0000 </r>
       <r>  -37.6387    1.0000 </r>
       <r>  -37.6387    1.0000 </r>
       <r>  -37.6387    1.0000 </r>
       <r>  -37.6386    1.0000 </r>
       <r>  -37.6385    1.0000 </r>
       <r>  -37.6385    1.0000 </r>
       <r>  -37.6385    1.0000 </r>
       <r>  -37.6385    1.0000 </r>
       <r>  -37.6380    1.0000 </r>
       <r>  -37.6380    1.0000 </r>
       <r>  -37.6377    1.0000 </r>
       <r>  -37.6377    1.0000 </r>
       <r>  -37.6376    1.0000 </r>
       <r>  -37.6374    1.0000 </r>
       <r>  -37.6374    1.0000 </r>
       <r>  -37.6373    1.0000 </r>
       <r>  -37.6373    1.0000 </r>
       <r>  -37.6372    1.0000 </r>
       <r>  -37.6372    1.0000 </r>
       <r>  -37.6371    1.0000 </r>
       <r>  -37.6371    1.0000 </r>
       <r>  -37.6370    1.0000 </r>
       <r>  -37.6369    1.0000 </r>
       <r>  -37.6367    1.0000 </r>
       <r>  -37.6367    1.0000 </r>
       <r>  -37.6367    1.0000 </r>
       <r>  -37.6367    1.0000 </r>
       <r>  -37.6367    1.0000 </r>
       <r>  -37.6367    1.0000 </r>
       <r>  -37.6367    1.0000 </r>
       <r>  -37.6366    1.0000 </r>
       <r>  -37.6365    1.0000 </r>
       <r>  -37.6365    1.0000 </r>
       <r>  -37.6364    1.0000 </r>
       <r>  -37.6364    1.0000 </r>
       <r>  -37.6364    1.0000 </r>
       <r>  -37.6363    1.0000 </r>
       <r>  -37.6362    1.0000 </r>
       <r>  -37.6360    1.0000 </r>
       <r>  -37.6358    1.0000 </r>
       <r>  -37.6358    1.0000 </r>
       <r>  -37.6353    1.0000 </r>
       <r>  -37.6352    1.0000 </r>
       <r>  -37.6351    1.0000 </r>
       <r>  -37.6350    1.0000 </r>
       <r>  -37.6350    1.0000 </r>
       <r>   -9.1732    1.0000 </r>
       <r>   -8.4101    1.0000 </r>
       <r>   -8.4077    1.0000 </r>
       <r>   -8.4077    1.0000 </r>
       <r>   -8.4077    1.0000 </r>
       <r>   -8.4077    1.0000 </r>
       <r>   -8.4054    1.0000 </r>
       <r>   -7.8903    1.0000 </r>
       <r>   -7.8857    1.0000 </r>
       <r>   -7.8857    1.0000 </r>
       <r>   -7.8856    1.0000 </r>
       <r>   -7.8856    1.0000 </r>
       <r>   -7.8856    1.0000 </r>
       <r>   -7.8856    1.0000 </r>
       <r>   -7.8856    1.0000 </r>
       <r>   -7.8856    1.0000 </r>
       <r>   -7.8855    1.0000 </r>
       <r>   -7.8855    1.0000 </r>
       <r>   -7.8812    1.0000 </r>
       <r>   -7.8025    1.0000 </r>
       <r>   -7.8025    1.0000 </r>
       <r>   -7.8025    1.0000 </r>
       <r>   -7.8024    1.0000 </r>
       <r>   -7.4243    1.0000 </r>
       <r>   -7.4243    1.0000 </r>
       <r>   -7.4243    1.0000 </r>
       <r>   -7.3755    1.0000 </r>
       <r>   -7.3733    1.0000 </r>
       <r>   -7.3733    1.0000 </r>
       <r>   -7.3733    1.0000 </r>
       <r>   -7.3733    1.0000 </r>
       <r>   -7.3709    1.0000 </r>
       <r>   -1.3772    1.0000 </r>
       <r>   -1.3772    1.0000 </r>
       <r>   -1.3772    1.0000 </r>
       <r>   -1.3772    1.0000 </r>
       <r>   -0.7318    1.0000 </r>
       <r>   -0.7318    1.0000 </r>
       <r>   -0.7318    1.0000 </r>
       <r>   -0.2105    1.0000 </r>
       <r>   -0.2105    1.0000 </r>
       <r>   -0.2099    1.0000 </r>
       <r>   -0.2093    1.0000 </r>
       <r>   -0.2092    1.0000 </r>
       <r>   -0.2091    1.0000 </r>
       <r>   -0.2091    1.0000 </r>
       <r>   -0.2091    1.0000 </r>
       <r>   -0.2089    1.0000 </r>
       <r>   -0.2084    1.0000 </r>
       <r>   -0.2078    1.0000 </r>
       <r>   -0.2078    1.0000 </r>
       <r>    0.2516    1.0000 </r>
       <r>    0.2516    1.0000 </r>
       <r>    0.2529    1.0000 </r>
       <r>    0.2529    1.0000 </r>
       <r>    0.2533    1.0000 </r>
       <r>    0.2533    1.0000 </r>
       <r>    0.2533    1.0000 </r>
       <r>    0.2533    1.0000 </r>
       <r>    0.2537    1.0000 </r>
       <r>    0.2537    1.0000 </r>
       <r>    0.2550    1.0000 </r>
       <r>    0.2550    1.0000 </r>
       <r>    0.9681    1.0000 </r>
       <r>    0.9689    1.0000 </r>
       <r>    0.9689    1.0000 </r>
       <r>    0.9689    1.0000 </r>
       <r>    0.9689    1.0000 </r>
       <r>    0.9698    1.0000 </r>
       <r>    1.1557    1.0000 </r>
       <r>    1.1557    1.0000 </r>
       <r>    1.1561    1.0000 </r>
       <r>    1.1561    1.0000 </r>
       <r>    1.1564    1.0000 </r>
       <r>    1.1570    1.0000 </r>
       <r>    1.1707    1.0000 </r>
       <r>    1.1707    1.0000 </r>
       <r>    1.1713    1.0000 </r>
       <r>    1.1716    1.0000 </r>
       <r>    1.1716    1.0000 </r>
       <r>    1.1716    1.0000 </r>
       <r>    1.1718    1.0000 </r>
       <r>    1.1718    1.0000 </r>
       <r>    1.1719    1.0000 </r>
       <r>    1.1723    1.0000 </r>
       <r>    1.1726    1.0000 </r>
       <r>    1.1726    1.0000 </r>
       <r>    1.8539    1.0000 </r>
       <r>    1.8539    1.0000 </r>
       <r>    1.8539    1.0000 </r>
       <r>    1.8539    1.0000 </r>
       <r>    1.8539    1.0000 </r>
       <r>    1.8539    1.0000 </r>
       <r>    2.5831    1.0000 </r>
       <r>    2.5831    1.0000 </r>
       <r>    2.5838    1.0000 </r>
       <r>    2.5838    1.0000 </r>
       <r>    2.5841    1.0000 </r>
       <r>    2.5843    1.0000 </r>
       <r>    2.5843    1.0000 </r>
       <r>    2.5843    1.0000 </r>
       <r>    2.5847    1.0000 </r>
       <r>    2.5847    1.0000 </r>
       <r>    2.5854    1.0000 </r>
       <r>    2.5854    1.0000 </r>
       <r>    2.9291    1.0000 </r>
       <r>    2.9291    1.0000 </r>
       <r>    2.9298    1.0000 </r>
       <r>    2.9304    1.0000 </r>
       <r>    2.9305    1.0000 </r>
       <r>    2.9305    1.0000 </r>
       <r>    2.9305    1.0000 </r>
       <r>    2.9305    1.0000 </r>
       <r>    2.9306    1.0000 </r>
       <r>    2.9311    1.0000 </r>
       <r>    2.9317    1.0000 </r>
       <r>    2.9317    1.0000 </r>
       <r>    2.9718    1.0000 </r>
       <r>    2.9718    1.0000 </r>
       <r>    2.9718    1.0000 </r>
       <r>    2.9718    1.0000 </r>
       <r>    2.9718    1.0000 </r>
       <r>    2.9719    1.0000 </r>
       <r>    2.9719    1.0000 </r>
       <r>    2.9719    1.0000 </r>
       <r>    3.5878    1.0000 </r>
       <r>    3.5878    1.0000 </r>
       <r>    3.5878    1.0000 </r>
       <r>    6.3230    0.0000 </r>
       <r>    6.3230    0.0000 </r>
       <r>    6.3230    0.0000 </r>
       <r>    7.2837    0.0000 </r>
       <r>    7.7889    0.0000 </r>
       <r>    7.7889    0.0000 </r>
       <r>    7.7889    0.0000 </r>
       <r>    8.0075    0.0000 </r>
       <r>    8.0075    0.0000 </r>
       <r>    8.0075    0.0000 </r>
       <r>    8.0075    0.0000 </r>
       <r>    8.5749    0.0000 </r>
       <r>    8.5754    0.0000 </r>
       <r>    8.5754    0.0000 </r>
       <r>    8.5754    0.0000 </r>
       <r>    8.5754    0.0000 </r>
       <r>    8.5759    0.0000 </r>
       <r>    8.8516    0.0000 </r>
       <r>    8.8522    0.0000 </r>
       <r>    8.8522    0.0000 </r>
       <r>    8.8522    0.0000 </r>
       <r>    8.8522    0.0000 </r>
       <r>    8.8529    0.0000 </r>
       <r>    9.0396    0.0000 </r>
       <r>    9.0409    0.0000 </r>
       <r>    9.0409    0.0000 </r>
       <r>    9.0409    0.0000 </r>
       <r>    9.0409    0.0000 </r>
       <r>    9.0423    0.0000 </r>
       <r>    9.1834    0.0000 </r>
       <r>    9.1839    0.0000 </r>
       <r>    9.1839    0.0000 </r>
       <r>    9.1845    0.0000 </r>
       <r>    9.1845    0.0000 </r>
       <r>    9.1845    0.0000 </r>
       <r>    9.1846    0.0000 </r>
       <r>    9.1846    0.0000 </r>
       <r>    9.1846    0.0000 </r>
       <r>    9.1852    0.0000 </r>
       <r>    9.1852    0.0000 </r>
       <r>    9.1857    0.0000 </r>
       <r>   10.4316    0.0000 </r>
       <r>   10.4316    0.0000 </r>
       <r>   10.4316    0.0000 </r>
      </set>
      <set comment="kpoint 2">
       <r>  -37.6435    1.0000 </r>
       <r>  -37.6434    1.0000 </r>
       <r>  -37.6428    1.0000 </r>
       <r>  -37.6428    1.0000 </r>
       <r>  -37.6428    1.0000 </r>
       <r>  -37.6428    1.0000 </r>
       <r>  -37.6424    1.0000 </r>
       <r>  -37.6422    1.0000 </r>
       <r>  -37.6422    1.0000 </r>
       <r>  -37.6417    1.0000 </r>
       <r>  -37.6417    1.0000 </r>
       <r>  -37.6416    1.0000 </r>
       <r>  -37.6415    1.0000 </r>
       <r>  -37.6415    1.0000 </r>
       <r>  -37.6414    1.0000 </r>
       <r>  -37.6414    1.0000 </r>
       <r>  -37.6414    1.0000 </r>
       <r>  -37.6413    1.0000 </r>
       <r>  -37.6413    1.0000 </r>
       <r>  -37.6413    1.0000 </r>
       <r>  -37.6412    1.0000 </r>
       <r>  -37.6410    1.0000 </r>
       <r>  -37.6408    1.0000 </r>
       <r>  -37.6408    1.0000 </r>
       <r>  -37.6408    1.0000 </r>
       <r>  -37.6406    1.0000 </r>
       <r>  -37.6402    1.0000 </r>
       <r>  -37.6402    1.0000 </r>
       <r>  -37.6402    1.0000 </r>
       <r>  -37.6401    1.0000 </r>
       <r>  -37.6399    1.0000 </r>
       <r>  -37.6398    1.0000 </r>
       <r>  -37.6398    1.0000 </r>
       <r>  -37.6397    1.0000 </r>
       <r>  -37.6396    1.0000 </r>
       <r>  -37.6395    1.0000 </r>
       <r>  -37.6395    1.0000 </r>
       <r>  -37.6395    1.0000 </r>
       <r>  -37.6395    1.0000 </r>
       <r>  -37.6395    1.0000 </r>
       <r>  -37.6395    1.0000 </r>
       <r>  -37.6388    1.0000 </r>
       <r>  -37.6388    1.0000 </r>
       <r>  -37.6386    1.0000 </r>
       <r>  -37.6386    1.0000 </r>
       <r>  -37.6385    1.0000 </r>
       <r>  -37.6385    1.0000 </r>
       <r>  -37.6383    1.0000 </r>
       <r>  -37.6383    1.0000 </r>
       <r>  -37.6383    1.0000 </r>
       <r>  -37.6382    1.0000 </r>
       <r>  -37.6380    1.0000 </r>
       <r>  -37.6380    1.0000 </r>
       <r>  -37.6379    1.0000 </r>
       <r>  -37.6379    1.0000 </r>
       <r>  -37.6378    1.0000 </r>
       <r>  -37.6378    1.0000 </r>
       <r>  -37.6378    1.0000 </r>
       <r>  -37.6378    1.0000 </r>
       <r>  -37.6377    1.0000 </r>
       <r>  -37.6377    1.0000 </r>
       <r>  -37.6376    1.0000 </r>
       <r>  -37.6376    1.0000 </r>
       <r>  -37.6375    1.0000 </r>
       <r>  -37.6374    1.0000 </r>
       <r>  -37.6374    1.0000 </r>
       <r>  -37.6374    1.0000 </r>
       <r>  -37.6373    1.0000 </r>
       <r>  -37.6373    1.0000 </r>
       <r>  -37.6372    1.0000 </r>
       <r>  -37.6371    1.0000 </r>
       <r>  -37.6369    1.0000 </r>
       <r>  -37.6369    1.0000 </r>
       <r>  -37.6369    1.0000 </r>
       <r>  -37.6367    1.0000 </r>
       <r>  -37.6367    1.0000 </r>
       <r>  -37.6367    1.0000 </r>
       <r>  -37.6367    1.0000 </r>
       <r>  -37.6367    1.0000 </r>
       <r>  -37.6367    1.0000 </r>
       <r>  -37.6366    1.0000 </r>
       <r>  -37.6365    1.0000 </r>
       <r>  -37.6365    1.0000 </r>
       <r>  -37.6364    1.0000 </r>
       <r>  -37.6364    1.0000 </r>
       <r>  -37.6363    1.0000 </r>
       <r>  -37.6363    1.0000 </r>
       <r>  -37.6362    1.0000 </r>
       <r>  -37.6359    1.0000 </r>
       <r>  -37.6358    1.0000 </r>
       <r>  -37.6358    1.0000 </r>
       <r>  -37.6356    1.0000 </r>
       <r>  -37.6353    1.0000 </r>
       <r>  -37.6351    1.0000 </r>
       <r>  -37.6350    1.0000 </r>
       <r>  -37.6350    1.0000 </r>
       <r>   -8.9655    1.0000 </r>
       <r>   -8.9633    1.0000 </r>
       <r>   -8.2598    1.0000 </r>
       <r>   -8.2567    1.0000 </r>
       <r>   -8.2567    1.0000 </r>
       <r>   -8.2563    1.0000 </r>
       <r>   -8.2560    1.0000 </r>
       <r>   -8.2557    1.0000 </r>
       <r>   -8.2557    1.0000 </r>
       <r>   -8.2527    1.0000 </r>
       <r>   -7.8482    1.0000 </r>
       <r>   -7.8457    1.0000 </r>
       <r>   -7.8448    1.0000 </r>
       <r>   -7.8448    1.0000 </r>
       <r>   -7.8447    1.0000 </r>
       <r>   -7.8447    1.0000 </r>
       <r>   -7.8439    1.0000 </r>
       <r>   -7.8415    1.0000 </r>
       <r>   -7.7465    1.0000 </r>
       <r>   -7.7446    1.0000 </r>
       <r>   -7.5224    1.0000 </r>
       <r>   -7.5194    1.0000 </r>
       <r>   -7.5194    1.0000 </r>
       <r>   -7.5192    1.0000 </r>
       <r>   -7.5189    1.0000 </r>
       <r>   -7.5186    1.0000 </r>
       <r>   -7.5186    1.0000 </r>
       <r>   -7.5157    1.0000 </r>
       <r>   -7.4011    1.0000 </r>
       <r>   -7.3990    1.0000 </r>
       <r>   -7.3990    1.0000 </r>
       <r>   -7.3968    1.0000 </r>
       <r>   -0.9409    1.0000 </r>
       <r>   -0.9409    1.0000 </r>
       <r>   -0.9407    1.0000 </r>
       <r>   -0.9397    1.0000 </r>
       <r>   -0.9392    1.0000 </r>
       <r>   -0.9382    1.0000 </r>
       <r>   -0.9381    1.0000 </r>
       <r>   -0.9381    1.0000 </r>
       <r>   -0.4768    1.0000 </r>
       <r>   -0.4768    1.0000 </r>
       <r>   -0.4746    1.0000 </r>
       <r>   -0.4746    1.0000 </r>
       <r>   -0.2527    1.0000 </r>
       <r>   -0.2501    1.0000 </r>
       <r>   -0.2285    1.0000 </r>
       <r>   -0.2261    1.0000 </r>
       <r>   -0.2258    1.0000 </r>
       <r>   -0.2258    1.0000 </r>
       <r>   -0.2254    1.0000 </r>
       <r>   -0.2254    1.0000 </r>
       <r>   -0.2250    1.0000 </r>
       <r>   -0.2224    1.0000 </r>
       <r>    0.4357    1.0000 </r>
       <r>    0.4357    1.0000 </r>
       <r>    0.4365    1.0000 </r>
       <r>    0.4367    1.0000 </r>
       <r>    0.4367    1.0000 </r>
       <r>    0.4368    1.0000 </r>
       <r>    0.4375    1.0000 </r>
       <r>    0.4375    1.0000 </r>
       <r>    0.4926    1.0000 </r>
       <r>    0.4926    1.0000 </r>
       <r>    0.4933    1.0000 </r>
       <r>    0.4938    1.0000 </r>
       <r>    0.4945    1.0000 </r>
       <r>    0.4950    1.0000 </r>
       <r>    0.4957    1.0000 </r>
       <r>    0.4957    1.0000 </r>
       <r>    1.2594    1.0000 </r>
       <r>    1.2594    1.0000 </r>
       <r>    1.2607    1.0000 </r>
       <r>    1.2607    1.0000 </r>
       <r>    1.4667    1.0000 </r>
       <r>    1.4690    1.0000 </r>
       <r>    1.4694    1.0000 </r>
       <r>    1.4717    1.0000 </r>
       <r>    2.0484    1.0000 </r>
       <r>    2.0484    1.0000 </r>
       <r>    2.0505    1.0000 </r>
       <r>    2.0505    1.0000 </r>
       <r>    2.0762    1.0000 </r>
       <r>    2.0762    1.0000 </r>
       <r>    2.0770    1.0000 </r>
       <r>    2.0771    1.0000 </r>
       <r>    2.0777    1.0000 </r>
       <r>    2.0779    1.0000 </r>
       <r>    2.0782    1.0000 </r>
       <r>    2.0782    1.0000 </r>
       <r>    2.0845    1.0000 </r>
       <r>    2.0850    1.0000 </r>
       <r>    2.0850    1.0000 </r>
       <r>    2.0854    1.0000 </r>
       <r>    2.0855    1.0000 </r>
       <r>    2.0863    1.0000 </r>
       <r>    2.0863    1.0000 </r>
       <r>    2.0863    1.0000 </r>
       <r>    2.1765    1.0000 </r>
       <r>    2.1792    1.0000 </r>
       <r>    2.1794    1.0000 </r>
       <r>    2.1794    1.0000 </r>
       <r>    2.1798    1.0000 </r>
       <r>    2.1798    1.0000 </r>
       <r>    2.1800    1.0000 </r>
       <r>    2.1828    1.0000 </r>
       <r>    2.5513    1.0000 </r>
       <r>    2.5533    1.0000 </r>
       <r>    2.8806    1.0000 </r>
       <r>    2.8835    1.0000 </r>
       <r>    2.8841    1.0000 </r>
       <r>    2.8841    1.0000 </r>
       <r>    2.8843    1.0000 </r>
       <r>    2.8843    1.0000 </r>
       <r>    2.8849    1.0000 </r>
       <r>    2.8879    1.0000 </r>
       <r>    2.9490    1.0000 </r>
       <r>    2.9490    1.0000 </r>
       <r>    2.9509    1.0000 </r>
       <r>    2.9509    1.0000 </r>
       <r>    2.9510    1.0000 </r>
       <r>    2.9510    1.0000 </r>
       <r>    2.9529    1.0000 </r>
       <r>    2.9529    1.0000 </r>
       <r>    3.2493    1.0000 </r>
       <r>    3.2493    1.0000 </r>
       <r>    3.2509    1.0000 </r>
       <r>    3.2509    1.0000 </r>
       <r>    6.9666    0.0000 </r>
       <r>    6.9679    0.0000 </r>
       <r>    7.3606    0.0000 </r>
       <r>    7.3614    0.0000 </r>
       <r>    7.3619    0.0000 </r>
       <r>    7.3626    0.0000 </r>
       <r>    8.1069    0.0000 </r>
       <r>    8.1093    0.0000 </r>
       <r>    8.4445    0.0000 </r>
       <r>    8.4453    0.0000 </r>
       <r>    8.8003    0.0000 </r>
       <r>    8.8006    0.0000 </r>
       <r>    8.8006    0.0000 </r>
       <r>    8.8007    0.0000 </r>
       <r>    8.8007    0.0000 </r>
       <r>    8.8007    0.0000 </r>
       <r>    8.8007    0.0000 </r>
       <r>    8.8011    0.0000 </r>
       <r>    8.8250    0.0000 </r>
       <r>    8.8250    0.0000 </r>
       <r>    8.8255    0.0000 </r>
       <r>    8.8255    0.0000 </r>
       <r>    8.8270    0.0000 </r>
       <r>    8.8270    0.0000 </r>
       <r>    8.8275    0.0000 </r>
       <r>    8.8275    0.0000 </r>
       <r>    8.9219    0.0000 </r>
       <r>    8.9219    0.0000 </r>
       <r>    8.9246    0.0000 </r>
       <r>    8.9246    0.0000 </r>
       <r>    9.3740    0.0000 </r>
       <r>    9.3744    0.0000 </r>
       <r>    9.3744    0.0000 </r>
       <r>    9.3748    0.0000 </r>
       <r>    9.3751    0.0000 </r>
       <r>    9.3755    0.0000 </r>
       <r>    9.3755    0.0000 </r>
       <r>    9.3759    0.0000 </r>
       <r>    9.9417    0.0000 </r>
       <r>    9.9431    0.0000 </r>
       <r>    9.9448    0.0000 </r>
       <r>    9.9463    0.0000 </r>
       <r>    9.9504    0.0000 </r>
       <r>    9.9779    0.0000 </r>
      </set>
      <set comment="kpoint 3">
       <r>  -37.6433    1.0000 </r>
       <r>  -37.6431    1.0000 </r>
       <r>  -37.6428    1.0000 </r>
       <r>  -37.6428    1.0000 </r>
       <r>  -37.6428    1.0000 </r>
       <r>  -37.6427    1.0000 </r>
       <r>  -37.6427    1.0000 </r>
       <r>  -37.6424    1.0000 </r>
       <r>  -37.6423    1.0000 </r>
       <r>  -37.6423    1.0000 </r>
       <r>  -37.6422    1.0000 </r>
       <r>  -37.6420    1.0000 </r>
       <r>  -37.6419    1.0000 </r>
       <r>  -37.6419    1.0000 </r>
       <r>  -37.6413    1.0000 </r>
       <r>  -37.6411    1.0000 </r>
       <r>  -37.6411    1.0000 </r>
       <r>  -37.6410    1.0000 </r>
       <r>  -37.6410    1.0000 </r>
       <r>  -37.6409    1.0000 </r>
       <r>  -37.6407    1.0000 </r>
       <r>  -37.6406    1.0000 </r>
       <r>  -37.6404    1.0000 </r>
       <r>  -37.6403    1.0000 </r>
       <r>  -37.6403    1.0000 </r>
       <r>  -37.6403    1.0000 </r>
       <r>  -37.6402    1.0000 </r>
       <r>  -37.6402    1.0000 </r>
       <r>  -37.6401    1.0000 </r>
       <r>  -37.6400    1.0000 </r>
       <r>  -37.6400    1.0000 </r>
       <r>  -37.6399    1.0000 </r>
       <r>  -37.6399    1.0000 </r>
       <r>  -37.6399    1.0000 </r>
       <r>  -37.6399    1.0000 </r>
       <r>  -37.6398    1.0000 </r>
       <r>  -37.6398    1.0000 </r>
       <r>  -37.6398    1.0000 </r>
       <r>  -37.6395    1.0000 </r>
       <r>  -37.6393    1.0000 </r>
       <r>  -37.6392    1.0000 </r>
       <r>  -37.6392    1.0000 </r>
       <r>  -37.6390    1.0000 </r>
       <r>  -37.6389    1.0000 </r>
       <r>  -37.6387    1.0000 </r>
       <r>  -37.6386    1.0000 </r>
       <r>  -37.6386    1.0000 </r>
       <r>  -37.6385    1.0000 </r>
       <r>  -37.6384    1.0000 </r>
       <r>  -37.6383    1.0000 </r>
       <r>  -37.6381    1.0000 </r>
       <r>  -37.6381    1.0000 </r>
       <r>  -37.6381    1.0000 </r>
       <r>  -37.6380    1.0000 </r>
       <r>  -37.6378    1.0000 </r>
       <r>  -37.6378    1.0000 </r>
       <r>  -37.6378    1.0000 </r>
       <r>  -37.6376    1.0000 </r>
       <r>  -37.6375    1.0000 </r>
       <r>  -37.6375    1.0000 </r>
       <r>  -37.6375    1.0000 </r>
       <r>  -37.6374    1.0000 </r>
       <r>  -37.6374    1.0000 </r>
       <r>  -37.6374    1.0000 </r>
       <r>  -37.6374    1.0000 </r>
       <r>  -37.6374    1.0000 </r>
       <r>  -37.6373    1.0000 </r>
       <r>  -37.6373    1.0000 </r>
       <r>  -37.6373    1.0000 </r>
       <r>  -37.6372    1.0000 </r>
       <r>  -37.6372    1.0000 </r>
       <r>  -37.6372    1.0000 </r>
       <r>  -37.6372    1.0000 </r>
       <r>  -37.6371    1.0000 </r>
       <r>  -37.6369    1.0000 </r>
       <r>  -37.6369    1.0000 </r>
       <r>  -37.6368    1.0000 </r>
       <r>  -37.6367    1.0000 </r>
       <r>  -37.6367    1.0000 </r>
       <r>  -37.6366    1.0000 </r>
       <r>  -37.6366    1.0000 </r>
       <r>  -37.6366    1.0000 </r>
       <r>  -37.6365    1.0000 </r>
       <r>  -37.6364    1.0000 </r>
       <r>  -37.6361    1.0000 </r>
       <r>  -37.6361    1.0000 </r>
       <r>  -37.6361    1.0000 </r>
       <r>  -37.6359    1.0000 </r>
       <r>  -37.6359    1.0000 </r>
       <r>  -37.6358    1.0000 </r>
       <r>  -37.6356    1.0000 </r>
       <r>  -37.6354    1.0000 </r>
       <r>  -37.6353    1.0000 </r>
       <r>  -37.6352    1.0000 </r>
       <r>  -37.6352    1.0000 </r>
       <r>  -37.6352    1.0000 </r>
       <r>   -8.9644    1.0000 </r>
       <r>   -8.9644    1.0000 </r>
       <r>   -8.2597    1.0000 </r>
       <r>   -8.2563    1.0000 </r>
       <r>   -8.2562    1.0000 </r>
       <r>   -8.2562    1.0000 </r>
       <r>   -8.2562    1.0000 </r>
       <r>   -8.2562    1.0000 </r>
       <r>   -8.2560    1.0000 </r>
       <r>   -8.2527    1.0000 </r>
       <r>   -7.8451    1.0000 </r>
       <r>   -7.8448    1.0000 </r>
       <r>   -7.8448    1.0000 </r>
       <r>   -7.8448    1.0000 </r>
       <r>   -7.8448    1.0000 </r>
       <r>   -7.8447    1.0000 </r>
       <r>   -7.8447    1.0000 </r>
       <r>   -7.8446    1.0000 </r>
       <r>   -7.7456    1.0000 </r>
       <r>   -7.7455    1.0000 </r>
       <r>   -7.5225    1.0000 </r>
       <r>   -7.5192    1.0000 </r>
       <r>   -7.5190    1.0000 </r>
       <r>   -7.5190    1.0000 </r>
       <r>   -7.5190    1.0000 </r>
       <r>   -7.5190    1.0000 </r>
       <r>   -7.5189    1.0000 </r>
       <r>   -7.5156    1.0000 </r>
       <r>   -7.3990    1.0000 </r>
       <r>   -7.3990    1.0000 </r>
       <r>   -7.3990    1.0000 </r>
       <r>   -7.3989    1.0000 </r>
       <r>   -0.9398    1.0000 </r>
       <r>   -0.9396    1.0000 </r>
       <r>   -0.9395    1.0000 </r>
       <r>   -0.9395    1.0000 </r>
       <r>   -0.9394    1.0000 </r>
       <r>   -0.9394    1.0000 </r>
       <r>   -0.9394    1.0000 </r>
       <r>   -0.9392    1.0000 </r>
       <r>   -0.4757    1.0000 </r>
       <r>   -0.4757    1.0000 </r>
       <r>   -0.4757    1.0000 </r>
       <r>   -0.4757    1.0000 </r>
       <r>   -0.2514    1.0000 </r>
       <r>   -0.2513    1.0000 </r>
       <r>   -0.2277    1.0000 </r>
       <r>   -0.2257    1.0000 </r>
       <r>   -0.2256    1.0000 </r>
       <r>   -0.2256    1.0000 </r>
       <r>   -0.2256    1.0000 </r>
       <r>   -0.2256    1.0000 </r>
       <r>   -0.2254    1.0000 </r>
       <r>   -0.2233    1.0000 </r>
       <r>    0.4357    1.0000 </r>
       <r>    0.4361    1.0000 </r>
       <r>    0.4364    1.0000 </r>
       <r>    0.4366    1.0000 </r>
       <r>    0.4367    1.0000 </r>
       <r>    0.4367    1.0000 </r>
       <r>    0.4372    1.0000 </r>
       <r>    0.4377    1.0000 </r>
       <r>    0.4929    1.0000 </r>
       <r>    0.4941    1.0000 </r>
       <r>    0.4941    1.0000 </r>
       <r>    0.4941    1.0000 </r>
       <r>    0.4942    1.0000 </r>
       <r>    0.4942    1.0000 </r>
       <r>    0.4944    1.0000 </r>
       <r>    0.4954    1.0000 </r>
       <r>    1.2600    1.0000 </r>
       <r>    1.2600    1.0000 </r>
       <r>    1.2601    1.0000 </r>
       <r>    1.2601    1.0000 </r>
       <r>    1.4692    1.0000 </r>
       <r>    1.4692    1.0000 </r>
       <r>    1.4692    1.0000 </r>
       <r>    1.4692    1.0000 </r>
       <r>    2.0493    1.0000 </r>
       <r>    2.0495    1.0000 </r>
       <r>    2.0495    1.0000 </r>
       <r>    2.0495    1.0000 </r>
       <r>    2.0758    1.0000 </r>
       <r>    2.0763    1.0000 </r>
       <r>    2.0770    1.0000 </r>
       <r>    2.0773    1.0000 </r>
       <r>    2.0773    1.0000 </r>
       <r>    2.0774    1.0000 </r>
       <r>    2.0775    1.0000 </r>
       <r>    2.0783    1.0000 </r>
       <r>    2.0846    1.0000 </r>
       <r>    2.0846    1.0000 </r>
       <r>    2.0854    1.0000 </r>
       <r>    2.0855    1.0000 </r>
       <r>    2.0860    1.0000 </r>
       <r>    2.0861    1.0000 </r>
       <r>    2.0862    1.0000 </r>
       <r>    2.0872    1.0000 </r>
       <r>    2.1793    1.0000 </r>
       <r>    2.1794    1.0000 </r>
       <r>    2.1796    1.0000 </r>
       <r>    2.1796    1.0000 </r>
       <r>    2.1797    1.0000 </r>
       <r>    2.1797    1.0000 </r>
       <r>    2.1799    1.0000 </r>
       <r>    2.1800    1.0000 </r>
       <r>    2.5523    1.0000 </r>
       <r>    2.5523    1.0000 </r>
       <r>    2.8821    1.0000 </r>
       <r>    2.8840    1.0000 </r>
       <r>    2.8842    1.0000 </r>
       <r>    2.8842    1.0000 </r>
       <r>    2.8842    1.0000 </r>
       <r>    2.8842    1.0000 </r>
       <r>    2.8844    1.0000 </r>
       <r>    2.8863    1.0000 </r>
       <r>    2.9507    1.0000 </r>
       <r>    2.9510    1.0000 </r>
       <r>    2.9510    1.0000 </r>
       <r>    2.9510    1.0000 </r>
       <r>    2.9510    1.0000 </r>
       <r>    2.9510    1.0000 </r>
       <r>    2.9510    1.0000 </r>
       <r>    2.9512    1.0000 </r>
       <r>    3.2501    1.0000 </r>
       <r>    3.2501    1.0000 </r>
       <r>    3.2501    1.0000 </r>
       <r>    3.2502    1.0000 </r>
       <r>    6.9672    0.0000 </r>
       <r>    6.9672    0.0000 </r>
       <r>    7.3616    0.0000 </r>
       <r>    7.3616    0.0000 </r>
       <r>    7.3616    0.0000 </r>
       <r>    7.3616    0.0000 </r>
       <r>    8.1081    0.0000 </r>
       <r>    8.1081    0.0000 </r>
       <r>    8.4449    0.0000 </r>
       <r>    8.4449    0.0000 </r>
       <r>    8.8001    0.0000 </r>
       <r>    8.8001    0.0000 </r>
       <r>    8.8007    0.0000 </r>
       <r>    8.8007    0.0000 </r>
       <r>    8.8007    0.0000 </r>
       <r>    8.8007    0.0000 </r>
       <r>    8.8012    0.0000 </r>
       <r>    8.8012    0.0000 </r>
       <r>    8.8260    0.0000 </r>
       <r>    8.8260    0.0000 </r>
       <r>    8.8260    0.0000 </r>
       <r>    8.8261    0.0000 </r>
       <r>    8.8264    0.0000 </r>
       <r>    8.8264    0.0000 </r>
       <r>    8.8265    0.0000 </r>
       <r>    8.8265    0.0000 </r>
       <r>    8.9232    0.0000 </r>
       <r>    8.9232    0.0000 </r>
       <r>    8.9232    0.0000 </r>
       <r>    8.9233    0.0000 </r>
       <r>    9.3740    0.0000 </r>
       <r>    9.3748    0.0000 </r>
       <r>    9.3749    0.0000 </r>
       <r>    9.3749    0.0000 </r>
       <r>    9.3749    0.0000 </r>
       <r>    9.3750    0.0000 </r>
       <r>    9.3751    0.0000 </r>
       <r>    9.3759    0.0000 </r>
       <r>    9.9429    0.0000 </r>
       <r>    9.9435    0.0000 </r>
       <r>    9.9459    0.0000 </r>
       <r>    9.9476    0.0000 </r>
       <r>    9.9500    0.0000 </r>
       <r>    9.9718    0.0000 </r>
      </set>
      <set comment="kpoint 4">
       <r>  -37.6432    1.0000 </r>
       <r>  -37.6431    1.0000 </r>
       <r>  -37.6428    1.0000 </r>
       <r>  -37.6427    1.0000 </r>
       <r>  -37.6426    1.0000 </r>
       <r>  -37.6425    1.0000 </r>
       <r>  -37.6425    1.0000 </r>
       <r>  -37.6422    1.0000 </r>
       <r>  -37.6422    1.0000 </r>
       <r>  -37.6421    1.0000 </r>
       <r>  -37.6420    1.0000 </r>
       <r>  -37.6419    1.0000 </r>
       <r>  -37.6418    1.0000 </r>
       <r>  -37.6418    1.0000 </r>
       <r>  -37.6415    1.0000 </r>
       <r>  -37.6415    1.0000 </r>
       <r>  -37.6415    1.0000 </r>
       <r>  -37.6414    1.0000 </r>
       <r>  -37.6412    1.0000 </r>
       <r>  -37.6412    1.0000 </r>
       <r>  -37.6412    1.0000 </r>
       <r>  -37.6411    1.0000 </r>
       <r>  -37.6411    1.0000 </r>
       <r>  -37.6410    1.0000 </r>
       <r>  -37.6410    1.0000 </r>
       <r>  -37.6407    1.0000 </r>
       <r>  -37.6407    1.0000 </r>
       <r>  -37.6406    1.0000 </r>
       <r>  -37.6402    1.0000 </r>
       <r>  -37.6402    1.0000 </r>
       <r>  -37.6400    1.0000 </r>
       <r>  -37.6398    1.0000 </r>
       <r>  -37.6398    1.0000 </r>
       <r>  -37.6395    1.0000 </r>
       <r>  -37.6392    1.0000 </r>
       <r>  -37.6392    1.0000 </r>
       <r>  -37.6391    1.0000 </r>
       <r>  -37.6391    1.0000 </r>
       <r>  -37.6391    1.0000 </r>
       <r>  -37.6389    1.0000 </r>
       <r>  -37.6389    1.0000 </r>
       <r>  -37.6388    1.0000 </r>
       <r>  -37.6387    1.0000 </r>
       <r>  -37.6385    1.0000 </r>
       <r>  -37.6385    1.0000 </r>
       <r>  -37.6384    1.0000 </r>
       <r>  -37.6384    1.0000 </r>
       <r>  -37.6383    1.0000 </r>
       <r>  -37.6382    1.0000 </r>
       <r>  -37.6382    1.0000 </r>
       <r>  -37.6382    1.0000 </r>
       <r>  -37.6382    1.0000 </r>
       <r>  -37.6381    1.0000 </r>
       <r>  -37.6381    1.0000 </r>
       <r>  -37.6381    1.0000 </r>
       <r>  -37.6380    1.0000 </r>
       <r>  -37.6380    1.0000 </r>
       <r>  -37.6379    1.0000 </r>
       <r>  -37.6379    1.0000 </r>
       <r>  -37.6378    1.0000 </r>
       <r>  -37.6378    1.0000 </r>
       <r>  -37.6377    1.0000 </r>
       <r>  -37.6376    1.0000 </r>
       <r>  -37.6376    1.0000 </r>
       <r>  -37.6376    1.0000 </r>
       <r>  -37.6374    1.0000 </r>
       <r>  -37.6374    1.0000 </r>
       <r>  -37.6372    1.0000 </r>
       <r>  -37.6372    1.0000 </r>
       <r>  -37.6372    1.0000 </r>
       <r>  -37.6372    1.0000 </r>
       <r>  -37.6371    1.0000 </r>
       <r>  -37.6371    1.0000 </r>
       <r>  -37.6371    1.0000 </r>
       <r>  -37.6370    1.0000 </r>
       <r>  -37.6370    1.0000 </r>
       <r>  -37.6369    1.0000 </r>
       <r>  -37.6369    1.0000 </r>
       <r>  -37.6369    1.0000 </r>
       <r>  -37.6368    1.0000 </r>
       <r>  -37.6367    1.0000 </r>
       <r>  -37.6367    1.0000 </r>
       <r>  -37.6366    1.0000 </r>
       <r>  -37.6363    1.0000 </r>
       <r>  -37.6362    1.0000 </r>
       <r>  -37.6361    1.0000 </r>
       <r>  -37.6361    1.0000 </r>
       <r>  -37.6360    1.0000 </r>
       <r>  -37.6359    1.0000 </r>
       <r>  -37.6357    1.0000 </r>
       <r>  -37.6355    1.0000 </r>
       <r>  -37.6354    1.0000 </r>
       <r>  -37.6353    1.0000 </r>
       <r>  -37.6352    1.0000 </r>
       <r>  -37.6352    1.0000 </r>
       <r>  -37.6350    1.0000 </r>
       <r>   -8.7707    1.0000 </r>
       <r>   -8.7690    1.0000 </r>
       <r>   -8.7684    1.0000 </r>
       <r>   -8.7668    1.0000 </r>
       <r>   -8.1343    1.0000 </r>
       <r>   -8.1314    1.0000 </r>
       <r>   -8.1313    1.0000 </r>
       <r>   -8.1309    1.0000 </r>
       <r>   -8.1308    1.0000 </r>
       <r>   -8.1304    1.0000 </r>
       <r>   -8.1303    1.0000 </r>
       <r>   -8.1276    1.0000 </r>
       <r>   -7.6736    1.0000 </r>
       <r>   -7.6707    1.0000 </r>
       <r>   -7.6706    1.0000 </r>
       <r>   -7.6703    1.0000 </r>
       <r>   -7.6702    1.0000 </r>
       <r>   -7.6699    1.0000 </r>
       <r>   -7.6698    1.0000 </r>
       <r>   -7.6672    1.0000 </r>
       <r>   -7.6041    1.0000 </r>
       <r>   -7.6015    1.0000 </r>
       <r>   -7.6014    1.0000 </r>
       <r>   -7.6011    1.0000 </r>
       <r>   -7.6009    1.0000 </r>
       <r>   -7.6006    1.0000 </r>
       <r>   -7.6005    1.0000 </r>
       <r>   -7.5976    1.0000 </r>
       <r>   -7.4233    1.0000 </r>
       <r>   -7.4217    1.0000 </r>
       <r>   -7.4212    1.0000 </r>
       <r>   -7.4195    1.0000 </r>
       <r>   -0.8421    1.0000 </r>
       <r>   -0.8419    1.0000 </r>
       <r>   -0.8414    1.0000 </r>
       <r>   -0.8405    1.0000 </r>
       <r>   -0.8404    1.0000 </r>
       <r>   -0.8396    1.0000 </r>
       <r>   -0.8391    1.0000 </r>
       <r>   -0.8389    1.0000 </r>
       <r>   -0.2781    1.0000 </r>
       <r>   -0.2773    1.0000 </r>
       <r>   -0.2757    1.0000 </r>
       <r>   -0.2754    1.0000 </r>
       <r>   -0.2752    1.0000 </r>
       <r>   -0.2749    1.0000 </r>
       <r>   -0.2735    1.0000 </r>
       <r>   -0.2732    1.0000 </r>
       <r>   -0.2664    1.0000 </r>
       <r>   -0.2656    1.0000 </r>
       <r>   -0.2652    1.0000 </r>
       <r>   -0.2650    1.0000 </r>
       <r>   -0.2650    1.0000 </r>
       <r>   -0.2642    1.0000 </r>
       <r>   -0.2640    1.0000 </r>
       <r>   -0.2637    1.0000 </r>
       <r>   -0.2249    1.0000 </r>
       <r>   -0.2234    1.0000 </r>
       <r>   -0.2228    1.0000 </r>
       <r>   -0.2212    1.0000 </r>
       <r>    0.3043    1.0000 </r>
       <r>    0.3048    1.0000 </r>
       <r>    0.3054    1.0000 </r>
       <r>    0.3059    1.0000 </r>
       <r>    1.3722    1.0000 </r>
       <r>    1.3729    1.0000 </r>
       <r>    1.3736    1.0000 </r>
       <r>    1.3738    1.0000 </r>
       <r>    1.3740    1.0000 </r>
       <r>    1.3741    1.0000 </r>
       <r>    1.3748    1.0000 </r>
       <r>    1.3755    1.0000 </r>
       <r>    1.4744    1.0000 </r>
       <r>    1.4765    1.0000 </r>
       <r>    1.4769    1.0000 </r>
       <r>    1.4770    1.0000 </r>
       <r>    1.4772    1.0000 </r>
       <r>    1.4774    1.0000 </r>
       <r>    1.4777    1.0000 </r>
       <r>    1.4798    1.0000 </r>
       <r>    1.5922    1.0000 </r>
       <r>    1.5922    1.0000 </r>
       <r>    1.5932    1.0000 </r>
       <r>    1.5932    1.0000 </r>
       <r>    1.9424    1.0000 </r>
       <r>    1.9431    1.0000 </r>
       <r>    1.9443    1.0000 </r>
       <r>    1.9444    1.0000 </r>
       <r>    1.9446    1.0000 </r>
       <r>    1.9447    1.0000 </r>
       <r>    1.9458    1.0000 </r>
       <r>    1.9465    1.0000 </r>
       <r>    2.1793    1.0000 </r>
       <r>    2.1798    1.0000 </r>
       <r>    2.1814    1.0000 </r>
       <r>    2.1820    1.0000 </r>
       <r>    2.3930    1.0000 </r>
       <r>    2.3938    1.0000 </r>
       <r>    2.3943    1.0000 </r>
       <r>    2.3946    1.0000 </r>
       <r>    2.3948    1.0000 </r>
       <r>    2.3952    1.0000 </r>
       <r>    2.3957    1.0000 </r>
       <r>    2.3964    1.0000 </r>
       <r>    2.6344    1.0000 </r>
       <r>    2.6352    1.0000 </r>
       <r>    2.6352    1.0000 </r>
       <r>    2.6357    1.0000 </r>
       <r>    2.6358    1.0000 </r>
       <r>    2.6363    1.0000 </r>
       <r>    2.6363    1.0000 </r>
       <r>    2.6371    1.0000 </r>
       <r>    2.7637    1.0000 </r>
       <r>    2.7649    1.0000 </r>
       <r>    2.7663    1.0000 </r>
       <r>    2.7664    1.0000 </r>
       <r>    2.7664    1.0000 </r>
       <r>    2.7665    1.0000 </r>
       <r>    2.7679    1.0000 </r>
       <r>    2.7692    1.0000 </r>
       <r>    2.8447    1.0000 </r>
       <r>    2.8457    1.0000 </r>
       <r>    2.8462    1.0000 </r>
       <r>    2.8473    1.0000 </r>
       <r>    3.4728    1.0000 </r>
       <r>    3.4733    1.0000 </r>
       <r>    3.4750    1.0000 </r>
       <r>    3.4755    1.0000 </r>
       <r>    7.4260    0.0000 </r>
       <r>    7.4261    0.0000 </r>
       <r>    7.4274    0.0000 </r>
       <r>    7.4275    0.0000 </r>
       <r>    7.9077    0.0000 </r>
       <r>    7.9083    0.0000 </r>
       <r>    7.9083    0.0000 </r>
       <r>    7.9085    0.0000 </r>
       <r>    7.9090    0.0000 </r>
       <r>    7.9092    0.0000 </r>
       <r>    7.9092    0.0000 </r>
       <r>    7.9098    0.0000 </r>
       <r>    8.7766    0.0000 </r>
       <r>    8.7777    0.0000 </r>
       <r>    8.7787    0.0000 </r>
       <r>    8.7787    0.0000 </r>
       <r>    8.7788    0.0000 </r>
       <r>    8.7788    0.0000 </r>
       <r>    8.7798    0.0000 </r>
       <r>    8.7809    0.0000 </r>
       <r>    8.9476    0.0000 </r>
       <r>    8.9483    0.0000 </r>
       <r>    8.9485    0.0000 </r>
       <r>    8.9492    0.0000 </r>
       <r>    9.1235    0.0000 </r>
       <r>    9.1236    0.0000 </r>
       <r>    9.1237    0.0000 </r>
       <r>    9.1238    0.0000 </r>
       <r>    9.1244    0.0000 </r>
       <r>    9.1245    0.0000 </r>
       <r>    9.1245    0.0000 </r>
       <r>    9.1246    0.0000 </r>
       <r>    9.1923    0.0000 </r>
       <r>    9.1928    0.0000 </r>
       <r>    9.1943    0.0000 </r>
       <r>    9.1945    0.0000 </r>
       <r>    9.1950    0.0000 </r>
       <r>    9.1953    0.0000 </r>
       <r>    9.1968    0.0000 </r>
       <r>    9.1973    0.0000 </r>
       <r>    9.6032    0.0000 </r>
       <r>    9.6038    0.0000 </r>
       <r>    9.6040    0.0000 </r>
       <r>    9.6045    0.0000 </r>
      </set>
      <set comment="kpoint 5">
       <r>  -37.6431    1.0000 </r>
       <r>  -37.6430    1.0000 </r>
       <r>  -37.6430    1.0000 </r>
       <r>  -37.6430    1.0000 </r>
       <r>  -37.6424    1.0000 </r>
       <r>  -37.6424    1.0000 </r>
       <r>  -37.6424    1.0000 </r>
       <r>  -37.6424    1.0000 </r>
       <r>  -37.6421    1.0000 </r>
       <r>  -37.6418    1.0000 </r>
       <r>  -37.6418    1.0000 </r>
       <r>  -37.6418    1.0000 </r>
       <r>  -37.6418    1.0000 </r>
       <r>  -37.6416    1.0000 </r>
       <r>  -37.6416    1.0000 </r>
       <r>  -37.6416    1.0000 </r>
       <r>  -37.6416    1.0000 </r>
       <r>  -37.6415    1.0000 </r>
       <r>  -37.6415    1.0000 </r>
       <r>  -37.6415    1.0000 </r>
       <r>  -37.6411    1.0000 </r>
       <r>  -37.6410    1.0000 </r>
       <r>  -37.6410    1.0000 </r>
       <r>  -37.6409    1.0000 </r>
       <r>  -37.6409    1.0000 </r>
       <r>  -37.6409    1.0000 </r>
       <r>  -37.6409    1.0000 </r>
       <r>  -37.6406    1.0000 </r>
       <r>  -37.6400    1.0000 </r>
       <r>  -37.6400    1.0000 </r>
       <r>  -37.6398    1.0000 </r>
       <r>  -37.6398    1.0000 </r>
       <r>  -37.6397    1.0000 </r>
       <r>  -37.6396    1.0000 </r>
       <r>  -37.6394    1.0000 </r>
       <r>  -37.6392    1.0000 </r>
       <r>  -37.6392    1.0000 </r>
       <r>  -37.6390    1.0000 </r>
       <r>  -37.6390    1.0000 </r>
       <r>  -37.6387    1.0000 </r>
       <r>  -37.6387    1.0000 </r>
       <r>  -37.6387    1.0000 </r>
       <r>  -37.6387    1.0000 </r>
       <r>  -37.6387    1.0000 </r>
       <r>  -37.6386    1.0000 </r>
       <r>  -37.6386    1.0000 </r>
       <r>  -37.6386    1.0000 </r>
       <r>  -37.6386    1.0000 </r>
       <r>  -37.6386    1.0000 </r>
       <r>  -37.6386    1.0000 </r>
       <r>  -37.6382    1.0000 </r>
       <r>  -37.6382    1.0000 </r>
       <r>  -37.6382    1.0000 </r>
       <r>  -37.6381    1.0000 </r>
       <r>  -37.6381    1.0000 </r>
       <r>  -37.6381    1.0000 </r>
       <r>  -37.6379    1.0000 </r>
       <r>  -37.6379    1.0000 </r>
       <r>  -37.6379    1.0000 </r>
       <r>  -37.6379    1.0000 </r>
       <r>  -37.6375    1.0000 </r>
       <r>  -37.6375    1.0000 </r>
       <r>  -37.6375    1.0000 </r>
       <r>  -37.6375    1.0000 </r>
       <r>  -37.6374    1.0000 </r>
       <r>  -37.6372    1.0000 </r>
       <r>  -37.6372    1.0000 </r>
       <r>  -37.6371    1.0000 </r>
       <r>  -37.6371    1.0000 </r>
       <r>  -37.6371    1.0000 </r>
       <r>  -37.6370    1.0000 </r>
       <r>  -37.6370    1.0000 </r>
       <r>  -37.6369    1.0000 </r>
       <r>  -37.6369    1.0000 </r>
       <r>  -37.6369    1.0000 </r>
       <r>  -37.6369    1.0000 </r>
       <r>  -37.6369    1.0000 </r>
       <r>  -37.6369    1.0000 </r>
       <r>  -37.6369    1.0000 </r>
       <r>  -37.6366    1.0000 </r>
       <r>  -37.6366    1.0000 </r>
       <r>  -37.6366    1.0000 </r>
       <r>  -37.6366    1.0000 </r>
       <r>  -37.6365    1.0000 </r>
       <r>  -37.6365    1.0000 </r>
       <r>  -37.6364    1.0000 </r>
       <r>  -37.6364    1.0000 </r>
       <r>  -37.6363    1.0000 </r>
       <r>  -37.6362    1.0000 </r>
[...]
      </set>
     </set>
    </set>
   </array>
  </eigenvalues>
  <separator name="orbital magnetization" >
   <v name="MAGDIPOLOUT">      0.00000000      0.00000000      0.00000000</v>
  </separator>
  <dos>
   <i name="efermi">      3.71303463 </i>
   <total>
    <array>
     <dimension dim="1">gridpoints</dimension>
     <dimension dim="2">spin</dimension>
     <field>energy</field>
     <field>total</field>
     <field>integrated</field>
     <set>
      <set comment="spin 1">
       <r>   -40.0476     0.0000     0.0000 </r>
       <r>   -39.8714     0.0000     0.0000 </r>
       <r>   -39.6951     0.0000     0.0000 </r>
       <r>   -39.5188     0.0000     0.0000 </r>
       <r>   -39.3425     0.0000     0.0000 </r>
       <r>   -39.1663     0.0000     0.0000 </r>
       <r>   -38.9900     0.0000     0.0000 </r>
       <r>   -38.8137     0.0000     0.0000 </r>
       <r>   -38.6374     0.0000     0.0000 </r>
       <r>   -38.4611     0.0000     0.0000 </r>
       <r>   -38.2849     0.0000     0.0000 </r>
       <r>   -38.1086     0.0000     0.0000 </r>
       <r>   -37.9323     0.0000     0.0000 </r>
       <r>   -37.7560     0.0000     0.0000 </r>
       <r>   -37.5798  1089.1971   192.0000 </r>
       <r>   -37.4035     0.0000   192.0000 </r>
       <r>   -37.2272     0.0000   192.0000 </r>
       <r>   -37.0509     0.0000   192.0000 </r>
       <r>   -36.8747     0.0000   192.0000 </r>
       <r>   -36.6984     0.0000   192.0000 </r>
       <r>   -36.5221     0.0000   192.0000 </r>
       <r>   -36.3458     0.0000   192.0000 </r>
       <r>   -36.1696     0.0000   192.0000 </r>
       <r>   -35.9933     0.0000   192.0000 </r>
       <r>   -35.8170     0.0000   192.0000 </r>
       <r>   -35.6407     0.0000   192.0000 </r>
       <r>   -35.4644     0.0000   192.0000 </r>
       <r>   -35.2882     0.0000   192.0000 </r>
       <r>   -35.1119     0.0000   192.0000 </r>
       <r>   -34.9356     0.0000   192.0000 </r>
       <r>   -34.7593     0.0000   192.0000 </r>
       <r>   -34.5831     0.0000   192.0000 </r>
       <r>   -34.4068     0.0000   192.0000 </r>
       <r>   -34.2305     0.0000   192.0000 </r>
       <r>   -34.0542     0.0000   192.0000 </r>
       <r>   -33.8780     0.0000   192.0000 </r>
       <r>   -33.7017     0.0000   192.0000 </r>
       <r>   -33.5254     0.0000   192.0000 </r>
       <r>   -33.3491     0.0000   192.0000 </r>
       <r>   -33.1729     0.0000   192.0000 </r>
       <r>   -32.9966     0.0000   192.0000 </r>
       <r>   -32.8203     0.0000   192.0000 </r>
       <r>   -32.6440     0.0000   192.0000 </r>
       <r>   -32.4677     0.0000   192.0000 </r>
       <r>   -32.2915     0.0000   192.0000 </r>
       <r>   -32.1152     0.0000   192.0000 </r>
       <r>   -31.9389     0.0000   192.0000 </r>
       <r>   -31.7626     0.0000   192.0000 </r>
       <r>   -31.5864     0.0000   192.0000 </r>
       <r>   -31.4101     0.0000   192.0000 </r>
       <r>   -31.2338     0.0000   192.0000 </r>
       <r>   -31.0575     0.0000   192.0000 </r>
       <r>   -30.8813     0.0000   192.0000 </r>
       <r>   -30.7050     0.0000   192.0000 </r>
       <r>   -30.5287     0.0000   192.0000 </r>
       <r>   -30.3524     0.0000   192.0000 </r>
       <r>   -30.1761     0.0000   192.0000 </r>
       <r>   -29.9999     0.0000   192.0000 </r>
       <r>   -29.8236     0.0000   192.0000 </r>
       <r>   -29.6473     0.0000   192.0000 </r>
       <r>   -29.4710     0.0000   192.0000 </r>
       <r>   -29.2948     0.0000   192.0000 </r>
       <r>   -29.1185     0.0000   192.0000 </r>
       <r>   -28.9422     0.0000   192.0000 </r>
       <r>   -28.7659     0.0000   192.0000 </r>
       <r>   -28.5897     0.0000   192.0000 </r>
       <r>   -28.4134     0.0000   192.0000 </r>
       <r>   -28.2371     0.0000   192.0000 </r>
       <r>   -28.0608     0.0000   192.0000 </r>
       <r>   -27.8846     0.0000   192.0000 </r>
       <r>   -27.7083     0.0000   192.0000 </r>
       <r>   -27.5320     0.0000   192.0000 </r>
       <r>   -27.3557     0.0000   192.0000 </r>
       <r>   -27.1794     0.0000   192.0000 </r>
       <r>   -27.0032     0.0000   192.0000 </r>
       <r>   -26.8269     0.0000   192.0000 </r>
       <r>   -26.6506     0.0000   192.0000 </r>
       <r>   -26.4743     0.0000   192.0000 </r>
       <r>   -26.2981     0.0000   192.0000 </r>
       <r>   -26.1218     0.0000   192.0000 </r>
       <r>   -25.9455     0.0000   192.0000 </r>
       <r>   -25.7692     0.0000   192.0000 </r>
       <r>   -25.5930     0.0000   192.0000 </r>
       <r>   -25.4167     0.0000   192.0000 </r>
       <r>   -25.2404     0.0000   192.0000 </r>
       <r>   -25.0641     0.0000   192.0000 </r>
       <r>   -24.8878     0.0000   192.0000 </r>
       <r>   -24.7116     0.0000   192.0000 </r>
       <r>   -24.5353     0.0000   192.0000 </r>
       <r>   -24.3590     0.0000   192.0000 </r>
       <r>   -24.1827     0.0000   192.0000 </r>
       <r>   -24.0065     0.0000   192.0000 </r>
       <r>   -23.8302     0.0000   192.0000 </r>
       <r>   -23.6539     0.0000   192.0000 </r>
       <r>   -23.4776     0.0000   192.0000 </r>
       <r>   -23.3014     0.0000   192.0000 </r>
       <r>   -23.1251     0.0000   192.0000 </r>
       <r>   -22.9488     0.0000   192.0000 </r>
       <r>   -22.7725     0.0000   192.0000 </r>
       <r>   -22.5963     0.0000   192.0000 </r>
       <r>   -22.4200     0.0000   192.0000 </r>
       <r>   -22.2437     0.0000   192.0000 </r>
       <r>   -22.0674     0.0000   192.0000 </r>
       <r>   -21.8911     0.0000   192.0000 </r>
       <r>   -21.7149     0.0000   192.0000 </r>
       <r>   -21.5386     0.0000   192.0000 </r>
       <r>   -21.3623     0.0000   192.0000 </r>
       <r>   -21.1860     0.0000   192.0000 </r>
       <r>   -21.0098     0.0000   192.0000 </r>
       <r>   -20.8335     0.0000   192.0000 </r>
       <r>   -20.6572     0.0000   192.0000 </r>
       <r>   -20.4809     0.0000   192.0000 </r>
       <r>   -20.3047     0.0000   192.0000 </r>
       <r>   -20.1284     0.0000   192.0000 </r>
       <r>   -19.9521     0.0000   192.0000 </r>
       <r>   -19.7758     0.0000   192.0000 </r>
       <r>   -19.5995     0.0000   192.0000 </r>
       <r>   -19.4233     0.0000   192.0000 </r>
       <r>   -19.2470     0.0000   192.0000 </r>
       <r>   -19.0707     0.0000   192.0000 </r>
       <r>   -18.8944     0.0000   192.0000 </r>
       <r>   -18.7182     0.0000   192.0000 </r>
       <r>   -18.5419     0.0000   192.0000 </r>
       <r>   -18.3656     0.0000   192.0000 </r>
       <r>   -18.1893     0.0000   192.0000 </r>
       <r>   -18.0131     0.0000   192.0000 </r>
       <r>   -17.8368     0.0000   192.0000 </r>
       <r>   -17.6605     0.0000   192.0000 </r>
       <r>   -17.4842     0.0000   192.0000 </r>
       <r>   -17.3080     0.0000   192.0000 </r>
       <r>   -17.1317     0.0000   192.0000 </r>
       <r>   -16.9554     0.0000   192.0000 </r>
       <r>   -16.7791     0.0000   192.0000 </r>
       <r>   -16.6028     0.0000   192.0000 </r>
       <r>   -16.4266     0.0000   192.0000 </r>
       <r>   -16.2503     0.0000   192.0000 </r>
       <r>   -16.0740     0.0000   192.0000 </r>
       <r>   -15.8977     0.0000   192.0000 </r>
       <r>   -15.7215     0.0000   192.0000 </r>
       <r>   -15.5452     0.0000   192.0000 </r>
       <r>   -15.3689     0.0000   192.0000 </r>
       <r>   -15.1926     0.0000   192.0000 </r>
       <r>   -15.0164     0.0000   192.0000 </r>
       <r>   -14.8401     0.0000   192.0000 </r>
       <r>   -14.6638     0.0000   192.0000 </r>
       <r>   -14.4875     0.0000   192.0000 </r>
       <r>   -14.3113     0.0000   192.0000 </r>
       <r>   -14.1350     0.0000   192.0000 </r>
       <r>   -13.9587     0.0000   192.0000 </r>
       <r>   -13.7824     0.0000   192.0000 </r>
       <r>   -13.6061     0.0000   192.0000 </r>
       <r>   -13.4299     0.0000   192.0000 </r>
       <r>   -13.2536     0.0000   192.0000 </r>
       <r>   -13.0773     0.0000   192.0000 </r>
       <r>   -12.9010     0.0000   192.0000 </r>
       <r>   -12.7248     0.0000   192.0000 </r>
       <r>   -12.5485     0.0000   192.0000 </r>
       <r>   -12.3722     0.0000   192.0000 </r>
       <r>   -12.1959     0.0000   192.0000 </r>
       <r>   -12.0197     0.0000   192.0000 </r>
       <r>   -11.8434     0.0000   192.0000 </r>
       <r>   -11.6671     0.0000   192.0000 </r>
       <r>   -11.4908     0.0000   192.0000 </r>
       <r>   -11.3145     0.0000   192.0000 </r>
       <r>   -11.1383     0.0000   192.0000 </r>
       <r>   -10.9620     0.0000   192.0000 </r>
       <r>   -10.7857     0.0000   192.0000 </r>
       <r>   -10.6094     0.0000   192.0000 </r>
       <r>   -10.4332     0.0000   192.0000 </r>
       <r>   -10.2569     0.0000   192.0000 </r>
       <r>   -10.0806     0.0000   192.0000 </r>
       <r>    -9.9043     0.0000   192.0000 </r>
       <r>    -9.7281     0.0000   192.0000 </r>
       <r>    -9.5518     0.0000   192.0000 </r>
       <r>    -9.3755     0.0000   192.0000 </r>
       <r>    -9.1992     0.0002   192.0000 </r>
       <r>    -9.0230     0.0000   192.2500 </r>
       <r>    -8.8467     0.0000   193.7500 </r>
       <r>    -8.6704     0.0000   196.7500 </r>
       <r>    -8.4941     0.0000   198.7500 </r>
       <r>    -8.3178     0.0000   200.2500 </r>
       <r>    -8.1416     2.3475   206.6638 </r>
       <r>    -7.9653     0.0000   212.2500 </r>
       <r>    -7.7890    39.5472   222.2212 </r>
       <r>    -7.6127    69.7410   236.0437 </r>
       <r>    -7.4365     4.7384   247.8353 </r>
       <r>    -7.2602     0.0000   256.0000 </r>
       <r>    -7.0839     0.0000   256.0000 </r>
       <r>    -6.9076     0.0000   256.0000 </r>
       <r>    -6.7314     0.0000   256.0000 </r>
       <r>    -6.5551     0.0000   256.0000 </r>
       <r>    -6.3788     0.0000   256.0000 </r>
       <r>    -6.2025     0.0000   256.0000 </r>
       <r>    -6.0262     0.0000   256.0000 </r>
       <r>    -5.8500     0.0000   256.0000 </r>
       <r>    -5.6737     0.0000   256.0000 </r>
       <r>    -5.4974     0.0000   256.0000 </r>
       <r>    -5.3211     0.0000   256.0000 </r>
       <r>    -5.1449     0.0000   256.0000 </r>
       <r>    -4.9686     0.0000   256.0000 </r>
       <r>    -4.7923     0.0000   256.0000 </r>
       <r>    -4.6160     0.0000   256.0000 </r>
       <r>    -4.4398     0.0000   256.0000 </r>
       <r>    -4.2635     0.0000   256.0000 </r>
       <r>    -4.0872     0.0000   256.0000 </r>
       <r>    -3.9109     0.0000   256.0000 </r>
       <r>    -3.7347     0.0000   256.0000 </r>
       <r>    -3.5584     0.0000   256.0000 </r>
       <r>    -3.3821     0.0000   256.0000 </r>
       <r>    -3.2058     0.0000   256.0000 </r>
       <r>    -3.0295     0.0000   256.0000 </r>
       <r>    -2.8533     0.0000   256.0000 </r>
       <r>    -2.6770     0.0000   256.0000 </r>
       <r>    -2.5007     0.0000   256.0000 </r>
       <r>    -2.3244     0.0000   256.0000 </r>
       <r>    -2.1482     0.0000   256.0000 </r>
       <r>    -1.9719     0.0000   256.0000 </r>
       <r>    -1.7956     0.0000   256.0000 </r>
       <r>    -1.6193     0.0000   256.0000 </r>
       <r>    -1.4431     0.0000   256.0000 </r>
       <r>    -1.2668     0.0000   257.0000 </r>
       <r>    -1.0905     0.0000   257.0000 </r>
       <r>    -0.9142    34.0310   262.9989 </r>
       <r>    -0.7380     0.8133   269.1434 </r>
       <r>    -0.5617    28.5617   274.7848 </r>
       <r>    -0.3854     0.0000   278.7500 </r>
       <r>    -0.2091   135.3314   302.6058 </r>
       <r>    -0.0328     0.0000   304.2500 </r>
       <r>     0.1434     0.0000   304.2500 </r>
       <r>     0.3197    33.7018   310.1908 </r>
       <r>     0.4960    54.4857   319.8545 </r>
       <r>     0.6723     0.0000   322.2500 </r>
       <r>     0.8485     0.0000   324.2500 </r>
       <r>     1.0248     8.5094   325.7500 </r>
       <r>     1.2011    25.5278   330.2499 </r>
       <r>     1.3774    57.4756   343.3816 </r>
       <r>     1.5536    34.0374   354.2500 </r>
       <r>     1.7299     0.0000   357.2500 </r>
       <r>     1.9062     8.5094   358.7500 </r>
       <r>     2.0825    54.4364   374.3459 </r>
       <r>     2.2588    49.6379   388.7500 </r>
       <r>     2.4350    34.0374   400.7500 </r>
       <r>     2.6113    25.5367   405.2515 </r>
       <r>     2.7876    33.9821   417.2403 </r>
       <r>     2.9639    79.6967   435.2987 </r>
       <r>     3.1401     0.0000   437.2500 </r>
       <r>     3.3164    39.7103   444.2500 </r>
       <r>     3.4927    16.9390   447.2359 </r>
       <r>     3.6690     0.0000   448.0000 </r>
       <r>     3.8452     0.0000   448.0000 </r>
       <r>     4.0215     0.0000   448.0000 </r>
       <r>     4.1978     0.0000   448.0000 </r>
       <r>     4.3741     0.0000   448.0000 </r>
       <r>     4.5503     0.0000   448.0000 </r>
       <r>     4.7266     0.0000   448.0000 </r>
       <r>     4.9029     0.0000   448.0000 </r>
       <r>     5.0792     0.0000   448.0000 </r>
       <r>     5.2555     0.0000   448.0000 </r>
       <r>     5.4317     0.0000   448.0000 </r>
       <r>     5.6080     0.0000   448.0000 </r>
       <r>     5.7843     0.0000   448.0000 </r>
       <r>     5.9606     0.0000   448.0000 </r>
       <r>     6.1368     0.0000   448.0000 </r>
       <r>     6.3131     0.3436   448.0606 </r>
       <r>     6.4894     0.0000   448.7500 </r>
       <r>     6.6657     0.0000   448.7500 </r>
       <r>     6.8419     0.0000   448.7500 </r>
       <r>     7.0182     8.5094   450.2500 </r>
       <r>     7.1945     0.0000   450.2500 </r>
       <r>     7.3708    15.3473   453.2054 </r>
       <r>     7.5471     0.0000   456.5000 </r>
       <r>     7.7233     0.0000   456.5000 </r>
       <r>     7.8996     3.3647   457.8431 </r>
       <r>     8.0759     5.6729   470.2500 </r>
       <r>     8.2522     0.0000   471.7500 </r>
       <r>     8.4284     0.0860   471.7652 </r>
       <r>     8.6047     8.5092   476.7500 </r>
       <r>     8.7810    21.3364   480.5111 </r>
       <r>     8.9573    32.2354   501.9324 </r>
       <r>     9.1335    30.9634   509.2081 </r>
       <r>     9.3098     0.0000   518.7500 </r>
       <r>     9.4861     0.0000   524.7500 </r>
       <r>     9.6624    17.0187   527.7500 </r>
       <r>     9.8386     0.0000   527.7500 </r>
       <r>    10.0149    25.5281   532.2500 </r>
       <r>    10.1912     0.0000   532.2500 </r>
       <r>    10.3675     0.0000   535.2500 </r>
       <r>    10.5438     0.0000   536.0000 </r>
       <r>    10.7200     0.0000   536.0000 </r>
       <r>    10.8963     0.0000   536.0000 </r>
       <r>    11.0726     0.0000   536.0000 </r>
       <r>    11.2489     0.0000   536.0000 </r>
       <r>    11.4251     0.0000   536.0000 </r>
       <r>    11.6014     0.0000   536.0000 </r>
       <r>    11.7777     0.0000   536.0000 </r>
       <r>    11.9540     0.0000   536.0000 </r>
       <r>    12.1302     0.0000   536.0000 </r>
       <r>    12.3065     0.0000   536.0000 </r>
       <r>    12.4828     0.0000   536.0000 </r>
       <r>    12.6591     0.0000   536.0000 </r>
       <r>    12.8354     0.0000   536.0000 </r>
      </set>
     </set>
    </array>
   </total>
  </dos>
 </calculation>
 <structure name="finalpos" >
  <crystal>
   <varray name="basis" >
    <v>      10.36194566       0.00000000       0.00000000 </v>
    <v>       0.00000000      10.36194566       0.00000000 </v>
    <v>       0.00000000       0.00000000      10.36194566 </v>
   </varray>
   <i name="volume">   1112.56125439 </i>
   <varray name="rec_basis" >
    <v>       0.09650697       0.00000000       0.00000000 </v>
    <v>       0.00000000       0.09650697       0.00000000 </v>
    <v>       0.00000000       0.00000000       0.09650697 </v>
   </varray>
  </crystal>
  <varray name="positions" >
   <v>       0.00096507       0.00000000       0.00000000 </v>
   <v>       0.50000000       0.00000000       0.00000000 </v>
   <v>       0.00000000       0.50000000       0.00000000 </v>
   <v>       0.50000000       0.50000000       0.00000000 </v>
   <v>       0.00000000       0.00000000       0.50000000 </v>
   <v>       0.50000000       0.00000000       0.50000000 </v>
   <v>       0.00000000       0.50000000       0.50000000 </v>
   <v>       0.50000000       0.50000000       0.50000000 </v>
   <v>       0.00000000       0.25000000       0.25000000 </v>
   <v>       0.50000000       0.25000000       0.25000000 </v>
   <v>       0.00000000       0.75000000       0.25000000 </v>
   <v>       0.50000000       0.75000000       0.25000000 </v>
   <v>       0.00000000       0.25000000       0.75000000 </v>
   <v>       0.50000000       0.25000000       0.75000000 </v>
   <v>       0.00000000       0.75000000       0.75000000 </v>
   <v>       0.50000000       0.75000000       0.75000000 </v>
   <v>       0.25000000       0.00000000       0.25000000 </v>
   <v>       0.75000000       0.00000000       0.25000000 </v>
   <v>       0.25000000       0.50000000       0.25000000 </v>
   <v>       0.75000000       0.50000000       0.25000000 </v>
   <v>       0.25000000       0.00000000       0.75000000 </v>
   <v>       0.75000000       0.00000000       0.75000000 </v>
   <v>       0.25000000       0.50000000       0.75000000 </v>
   <v>       0.75000000       0.50000000       0.75000000 </v>
   <v>       0.25000000       0.25000000       0.00000000 </v>
   <v>       0.75000000       0.25000000       0.00000000 </v>
   <v>       0.25000000       0.75000000       0.00000000 </v>
   <v>       0.75000000       0.75000000       0.00000000 </v>
   <v>       0.25000000       0.25000000       0.50000000 </v>
   <v>       0.75000000       0.25000000       0.50000000 </v>
   <v>       0.25000000       0.75000000       0.50000000 </v>
   <v>       0.75000000       0.75000000       0.50000000 </v>
   <v>       0.25000000       0.00000000       0.00000000 </v>
   <v>       0.75000000       0.00000000       0.00000000 </v>
   <v>       0.25000000       0.50000000       0.00000000 </v>
   <v>       0.75000000       0.50000000       0.00000000 </v>
   <v>       0.25000000       0.00000000       0.50000000 </v>
   <v>       0.75000000       0.00000000       0.50000000 </v>
   <v>       0.25000000       0.50000000       0.50000000 </v>
   <v>       0.75000000       0.50000000       0.50000000 </v>
   <v>       0.25000000       0.25000000       0.25000000 </v>
   <v>       0.75000000       0.25000000       0.25000000 </v>
   <v>       0.25000000       0.75000000       0.25000000 </v>
   <v>       0.75000000       0.75000000       0.25000000 </v>
   <v>       0.25000000       0.25000000       0.75000000 </v>
   <v>       0.75000000       0.25000000       0.75000000 </v>
   <v>       0.25000000       0.75000000       0.75000000 </v>
   <v>       0.75000000       0.75000000       0.75000000 </v>
   <v>       0.00000000       0.00000000       0.25000000 </v>
   <v>       0.50000000       0.00000000       0.25000000 </v>
   <v>       0.00000000       0.50000000       0.25000000 </v>
   <v>       0.50000000       0.50000000       0.25000000 </v>
   <v>       0.00000000       0.00000000       0.75000000 </v>
   <v>       0.50000000       0.00000000       0.75000000 </v>
   <v>       0.00000000       0.50000000       0.75000000 </v>
   <v>       0.50000000       0.50000000       0.75000000 </v>
   <v>       0.00000000       0.25000000       0.00000000 </v>
   <v>       0.50000000       0.25000000       0.00000000 </v>
   <v>       0.00000000       0.75000000       0.00000000 </v>
   <v>       0.50000000       0.75000000       0.00000000 </v>
   <v>       0.00000000       0.25000000       0.50000000 </v>
   <v>       0.50000000       0.25000000       0.50000000 </v>
   <v>       0.00000000       0.75000000       0.50000000 </v>
   <v>       0.50000000       0.75000000       0.50000000 </v>
  </varray>
 </structure>
</modeling>
