   8   8   0   0
  0.1807912E+02  0.5249151E-09  0.5249151E-09  0.5249151E-09  0.5000000E-15
  1.000000000000000E-004
  CAR 
 unknown system                          
     13.57356166    -40.52504906  301      3.33990780      1.00000000
    -40.525  0.0000E+00  0.0000E+00
    -40.345  0.0000E+00  0.0000E+00
    -40.164  0.0000E+00  0.0000E+00
    -39.984  0.0000E+00  0.0000E+00
    -39.804  0.0000E+00  0.0000E+00
    -39.623  0.0000E+00  0.0000E+00
    -39.443  0.0000E+00  0.0000E+00
    -39.263  0.0000E+00  0.0000E+00
    -39.082  0.0000E+00  0.0000E+00
    -38.902  0.0000E+00  0.0000E+00
    -38.722  0.0000E+00  0.0000E+00
    -38.541  0.0000E+00  0.0000E+00
    -38.361  0.0000E+00  0.0000E+00
    -38.181  0.0000E+00  0.0000E+00
    -38.000  0.6655E+01  0.1200E+01
    -37.820  0.0000E+00  0.1200E+01
    -37.640  0.0000E+00  0.1200E+01
    -37.459  0.0000E+00  0.1200E+01
    -37.279  0.0000E+00  0.1200E+01
    -37.099  0.0000E+00  0.1200E+01
    -36.918  0.0000E+00  0.1200E+01
    -36.738  0.0000E+00  0.1200E+01
    -36.558  0.0000E+00  0.1200E+01
    -36.377  0.0000E+00  0.1200E+01
    -36.197  0.0000E+00  0.1200E+01
    -36.017  0.0000E+00  0.1200E+01
    -35.837  0.0000E+00  0.1200E+01
    -35.656  0.0000E+00  0.1200E+01
    -35.476  0.0000E+00  0.1200E+01
    -35.296  0.0000E+00  0.1200E+01
    -35.115  0.0000E+00  0.1200E+01
    -34.935  0.0000E+00  0.1200E+01
    -34.755  0.0000E+00  0.1200E+01
    -34.574  0.0000E+00  0.1200E+01
    -34.394  0.0000E+00  0.1200E+01
    -34.214  0.0000E+00  0.1200E+01
    -34.033  0.0000E+00  0.1200E+01
    -33.853  0.0000E+00  0.1200E+01
    -33.673  0.0000E+00  0.1200E+01
    -33.492  0.0000E+00  0.1200E+01
    -33.312  0.0000E+00  0.1200E+01
    -33.132  0.0000E+00  0.1200E+01
    -32.951  0.0000E+00  0.1200E+01
    -32.771  0.0000E+00  0.1200E+01
    -32.591  0.0000E+00  0.1200E+01
    -32.410  0.0000E+00  0.1200E+01
    -32.230  0.0000E+00  0.1200E+01
    -32.050  0.0000E+00  0.1200E+01
    -31.869  0.0000E+00  0.1200E+01
    -31.689  0.0000E+00  0.1200E+01
    -31.509  0.0000E+00  0.1200E+01
    -31.328  0.0000E+00  0.1200E+01
    -31.148  0.0000E+00  0.1200E+01
    -30.968  0.0000E+00  0.1200E+01
    -30.787  0.0000E+00  0.1200E+01
    -30.607  0.0000E+00  0.1200E+01
    -30.427  0.0000E+00  0.1200E+01
    -30.246  0.0000E+00  0.1200E+01
    -30.066  0.0000E+00  0.1200E+01
    -29.886  0.0000E+00  0.1200E+01
    -29.705  0.0000E+00  0.1200E+01
    -29.525  0.0000E+00  0.1200E+01
    -29.345  0.0000E+00  0.1200E+01
    -29.164  0.0000E+00  0.1200E+01
    -28.984  0.0000E+00  0.1200E+01
    -28.804  0.0000E+00  0.1200E+01
    -28.623  0.0000E+00  0.1200E+01
    -28.443  0.0000E+00  0.1200E+01
    -28.263  0.0000E+00  0.1200E+01
    -28.082  0.0000E+00  0.1200E+01
    -27.902  0.0000E+00  0.1200E+01
    -27.722  0.0000E+00  0.1200E+01
    -27.541  0.0000E+00  0.1200E+01
    -27.361  0.0000E+00  0.1200E+01
    -27.181  0.0000E+00  0.1200E+01
    -27.000  0.0000E+00  0.1200E+01
    -26.820  0.0000E+00  0.1200E+01
    -26.640  0.0000E+00  0.1200E+01
    -26.459  0.0000E+00  0.1200E+01
    -26.279  0.0000E+00  0.1200E+01
    -26.099  0.0000E+00  0.1200E+01
    -25.918  0.0000E+00  0.1200E+01
    -25.738  0.0000E+00  0.1200E+01
    -25.558  0.0000E+00  0.1200E+01
    -25.377  0.0000E+00  0.1200E+01
    -25.197  0.0000E+00  0.1200E+01
    -25.017  0.0000E+00  0.1200E+01
    -24.836  0.0000E+00  0.1200E+01
    -24.656  0.0000E+00  0.1200E+01
    -24.476  0.0000E+00  0.1200E+01
    -24.295  0.0000E+00  0.1200E+01
    -24.115  0.0000E+00  0.1200E+01
    -23.935  0.0000E+00  0.1200E+01
    -23.754  0.0000E+00  0.1200E+01
    -23.574  0.0000E+00  0.1200E+01
    -23.394  0.0000E+00  0.1200E+01
    -23.213  0.0000E+00  0.1200E+01
    -23.033  0.0000E+00  0.1200E+01
    -22.853  0.0000E+00  0.1200E+01
    -22.673  0.0000E+00  0.1200E+01
    -22.492  0.0000E+00  0.1200E+01
    -22.312  0.0000E+00  0.1200E+01
    -22.132  0.0000E+00  0.1200E+01
    -21.951  0.0000E+00  0.1200E+01
    -21.771  0.0000E+00  0.1200E+01
    -21.591  0.0000E+00  0.1200E+01
    -21.410  0.0000E+00  0.1200E+01
    -21.230  0.0000E+00  0.1200E+01
    -21.050  0.0000E+00  0.1200E+01
    -20.869  0.0000E+00  0.1200E+01
    -20.689  0.0000E+00  0.1200E+01
    -20.509  0.0000E+00  0.1200E+01
    -20.328  0.0000E+00  0.1200E+01
    -20.148  0.0000E+00  0.1200E+01
    -19.968  0.0000E+00  0.1200E+01
    -19.787  0.0000E+00  0.1200E+01
    -19.607  0.0000E+00  0.1200E+01
    -19.427  0.0000E+00  0.1200E+01
    -19.246  0.0000E+00  0.1200E+01
    -19.066  0.0000E+00  0.1200E+01
    -18.886  0.0000E+00  0.1200E+01
    -18.705  0.0000E+00  0.1200E+01
    -18.525  0.0000E+00  0.1200E+01
    -18.345  0.0000E+00  0.1200E+01
    -18.164  0.0000E+00  0.1200E+01
    -17.984  0.0000E+00  0.1200E+01
    -17.804  0.0000E+00  0.1200E+01
    -17.623  0.0000E+00  0.1200E+01
    -17.443  0.0000E+00  0.1200E+01
    -17.263  0.0000E+00  0.1200E+01
    -17.082  0.0000E+00  0.1200E+01
    -16.902  0.0000E+00  0.1200E+01
    -16.722  0.0000E+00  0.1200E+01
    -16.541  0.0000E+00  0.1200E+01
    -16.361  0.0000E+00  0.1200E+01
    -16.181  0.0000E+00  0.1200E+01
    -16.000  0.0000E+00  0.1200E+01
    -15.820  0.0000E+00  0.1200E+01
    -15.640  0.0000E+00  0.1200E+01
    -15.459  0.0000E+00  0.1200E+01
    -15.279  0.0000E+00  0.1200E+01
    -15.099  0.0000E+00  0.1200E+01
    -14.918  0.0000E+00  0.1200E+01
    -14.738  0.0000E+00  0.1200E+01
    -14.558  0.0000E+00  0.1200E+01
    -14.377  0.0000E+00  0.1200E+01
    -14.197  0.0000E+00  0.1200E+01
    -14.017  0.0000E+00  0.1200E+01
    -13.836  0.0000E+00  0.1200E+01
    -13.656  0.0000E+00  0.1200E+01
    -13.476  0.0000E+00  0.1200E+01
    -13.295  0.0000E+00  0.1200E+01
    -13.115  0.0000E+00  0.1200E+01
    -12.935  0.0000E+00  0.1200E+01
    -12.754  0.0000E+00  0.1200E+01
    -12.574  0.0000E+00  0.1200E+01
    -12.394  0.0000E+00  0.1200E+01
    -12.213  0.0000E+00  0.1200E+01
    -12.033  0.0000E+00  0.1200E+01
    -11.853  0.0000E+00  0.1200E+01
    -11.672  0.0000E+00  0.1200E+01
    -11.492  0.0000E+00  0.1200E+01
    -11.312  0.0000E+00  0.1200E+01
    -11.131  0.0000E+00  0.1200E+01
    -10.951  0.0000E+00  0.1200E+01
    -10.771  0.0000E+00  0.1200E+01
    -10.590  0.0000E+00  0.1200E+01
    -10.410  0.0000E+00  0.1200E+01
    -10.230  0.0000E+00  0.1200E+01
    -10.049  0.0000E+00  0.1200E+01
     -9.869  0.0000E+00  0.1200E+01
     -9.689  0.0000E+00  0.1200E+01
     -9.509  0.0000E+00  0.1200E+01
     -9.328  0.2000E-09  0.1200E+01
     -9.148  0.4646E-15  0.1202E+01
     -8.968  0.5195E-16  0.1211E+01
     -8.787  0.2596E-10  0.1230E+01
     -8.607  0.1026E-06  0.1242E+01
     -8.427  0.1797E+00  0.1284E+01
     -8.246  0.2080E+00  0.1327E+01
     -8.066  0.1312E+00  0.1350E+01
     -7.886  0.2454E+00  0.1433E+01
     -7.705  0.2080E+00  0.1548E+01
     -7.525  0.0000E+00  0.1600E+01
     -7.345  0.0000E+00  0.1600E+01
     -7.164  0.0000E+00  0.1600E+01
     -6.984  0.0000E+00  0.1600E+01
     -6.804  0.0000E+00  0.1600E+01
     -6.623  0.0000E+00  0.1600E+01
     -6.443  0.0000E+00  0.1600E+01
     -6.263  0.0000E+00  0.1600E+01
     -6.082  0.0000E+00  0.1600E+01
     -5.902  0.0000E+00  0.1600E+01
     -5.722  0.0000E+00  0.1600E+01
     -5.541  0.0000E+00  0.1600E+01
     -5.361  0.0000E+00  0.1600E+01
     -5.181  0.0000E+00  0.1600E+01
     -5.000  0.0000E+00  0.1600E+01
     -4.820  0.0000E+00  0.1600E+01
     -4.640  0.0000E+00  0.1600E+01
     -4.459  0.0000E+00  0.1600E+01
     -4.279  0.0000E+00  0.1600E+01
     -4.099  0.0000E+00  0.1600E+01
     -3.918  0.0000E+00  0.1600E+01
     -3.738  0.0000E+00  0.1600E+01
     -3.558  0.0000E+00  0.1600E+01
     -3.377  0.0000E+00  0.1600E+01
     -3.197  0.0000E+00  0.1600E+01
     -3.017  0.0000E+00  0.1600E+01
     -2.836  0.0000E+00  0.1600E+01
     -2.656  0.0000E+00  0.1600E+01
     -2.476  0.0000E+00  0.1600E+01
     -2.295  0.0000E+00  0.1600E+01
     -2.115  0.0000E+00  0.1600E+01
     -1.935  0.0000E+00  0.1600E+01
     -1.754  0.0000E+00  0.1600E+01
     -1.574  0.0000E+00  0.1600E+01
     -1.394  0.0000E+00  0.1606E+01
     -1.213  0.0000E+00  0.1606E+01
     -1.033  0.2080E+00  0.1644E+01
     -0.853  0.2553E-01  0.1686E+01
     -0.672  0.2080E+00  0.1723E+01
     -0.492  0.1821E-06  0.1742E+01
     -0.312  0.1040E+00  0.1902E+01
     -0.131  0.0000E+00  0.1902E+01
      0.049  0.2276E-06  0.1902E+01
      0.229  0.2079E+00  0.1977E+01
      0.410  0.7234E-15  0.2014E+01
      0.590  0.0000E+00  0.2027E+01
      0.770  0.5199E-01  0.2036E+01
      0.951  0.5562E-01  0.2046E+01
      1.131  0.2084E+00  0.2120E+01
      1.311  0.2871E+00  0.2228E+01
      1.492  0.0000E+00  0.2233E+01
      1.672  0.5272E-01  0.2242E+01
      1.852  0.5198E+00  0.2373E+01
      2.033  0.1329E-08  0.2430E+01
      2.213  0.9508E-03  0.2505E+01
      2.393  0.2080E+00  0.2570E+01
      2.574  0.1055E+00  0.2627E+01
      2.754  0.6932E-01  0.2733E+01
      2.934  0.1149E+00  0.2754E+01
      3.114  0.2195E-06  0.2777E+01
      3.295  0.2599E-01  0.2800E+01
      3.475  0.0000E+00  0.2800E+01
      3.655  0.0000E+00  0.2800E+01
      3.836  0.0000E+00  0.2800E+01
      4.016  0.0000E+00  0.2800E+01
      4.196  0.0000E+00  0.2800E+01
      4.377  0.0000E+00  0.2800E+01
      4.557  0.0000E+00  0.2800E+01
      4.737  0.0000E+00  0.2800E+01
      4.918  0.0000E+00  0.2800E+01
      5.098  0.0000E+00  0.2800E+01
      5.278  0.0000E+00  0.2800E+01
      5.459  0.0000E+00  0.2800E+01
      5.639  0.0000E+00  0.2800E+01
      5.819  0.0000E+00  0.2800E+01
      6.000  0.0000E+00  0.2805E+01
      6.180  0.0000E+00  0.2805E+01
      6.360  0.0000E+00  0.2805E+01
      6.541  0.3783E-01  0.2812E+01
      6.721  0.8665E-02  0.2816E+01
      6.901  0.2067E-02  0.2816E+01
      7.082  0.1040E+00  0.2853E+01
      7.262  0.0000E+00  0.2853E+01
      7.442  0.9697E-02  0.2855E+01
      7.623  0.5885E-01  0.2939E+01
      7.803  0.2445E-01  0.2943E+01
      7.983  0.5075E-01  0.2967E+01
      8.164  0.0000E+00  0.2980E+01
      8.344  0.1505E+00  0.3007E+01
      8.524  0.0000E+00  0.3120E+01
      8.705  0.3066E+00  0.3176E+01
      8.885  0.2083E+00  0.3242E+01
      9.065  0.0000E+00  0.3280E+01
      9.246  0.2080E+00  0.3317E+01
      9.426  0.0000E+00  0.3317E+01
      9.606  0.1634E+00  0.3347E+01
      9.787  0.2080E+00  0.3430E+01
      9.967  0.0000E+00  0.3486E+01
     10.147  0.9999E-01  0.3510E+01
     10.328  0.2496E-02  0.3540E+01
     10.508  0.0000E+00  0.3558E+01
     10.688  0.0000E+00  0.3577E+01
     10.869  0.0000E+00  0.3577E+01
     11.049  0.2330E-01  0.3593E+01
     11.229  0.0000E+00  0.3600E+01
     11.410  0.0000E+00  0.3600E+01
     11.590  0.0000E+00  0.3600E+01
     11.770  0.0000E+00  0.3600E+01
     11.951  0.0000E+00  0.3600E+01
     12.131  0.0000E+00  0.3600E+01
     12.311  0.0000E+00  0.3600E+01
     12.492  0.0000E+00  0.3600E+01
     12.672  0.0000E+00  0.3600E+01
     12.852  0.0000E+00  0.3600E+01
     13.033  0.0000E+00  0.3600E+01
     13.213  0.0000E+00  0.3600E+01
     13.393  0.0000E+00  0.3600E+01
     13.574  0.0000E+00  0.3600E+01
