       N       E                     dE             d eps       ncg     rms          rms(c)
DAV:   1     0.447009925168E+03    0.44701E+03   -0.34501E+04   904   0.152E+03
DAV:   2    -0.384567251298E+01   -0.45086E+03   -0.43764E+03   868   0.380E+02
DAV:   3    -0.366099568115E+02   -0.32764E+02   -0.32571E+02   852   0.988E+01
DAV:   4    -0.376903127959E+02   -0.10804E+01   -0.10780E+01   872   0.154E+01
DAV:   5    -0.377179510313E+02   -0.27638E-01   -0.27628E-01   892   0.251E+00    0.821E+00
DAV:   6    -0.363527463953E+02    0.13652E+01   -0.27472E+00   772   0.663E+00    0.604E+00
DAV:   7    -0.361925139834E+02    0.16023E+00   -0.75133E-01   912   0.334E+00    0.351E+00
DAV:   8    -0.361847031544E+02    0.78108E-02   -0.50551E-02   796   0.136E+00    0.107E+00
DAV:   9    -0.361837511367E+02    0.95202E-03   -0.27516E-03   860   0.274E-01    0.317E-01
DAV:  10    -0.361837740184E+02   -0.22882E-04   -0.66703E-04   912   0.109E-01    0.186E-02
DAV:  11    -0.361837701630E+02    0.38554E-05   -0.30543E-05   824   0.292E-02    0.258E-02
DAV:  12    -0.361837694164E+02    0.74664E-06   -0.17780E-06   904   0.550E-03    0.302E-03
DAV:  13    -0.361837693053E+02    0.11102E-06   -0.24185E-07   844   0.217E-03    0.158E-03
DAV:  14    -0.361837692649E+02    0.40411E-07   -0.17483E-08   792   0.627E-04    0.207E-03
DAV:  15    -0.361837693169E+02   -0.51941E-07   -0.49391E-09   696   0.345E-04    0.587E-04
DAV:  16    -0.361837693036E+02    0.13310E-07   -0.16843E-10   424   0.919E-05    0.115E-04
DAV:  17    -0.361837693004E+02    0.31141E-08   -0.51496E-11   416   0.409E-05
   1 F= -.36183769E+02 E0= -.36183769E+02  d E =-.361838E+02
