 vasp.5.3.5 31Mar14 (build Nov 07 2014 11:36:17) complex                        
  
 executed on             LinuxIFC date 2015.10.15  01:06:12
 running on   20 total cores
 distrk:  each k-point on   20 cores,    1 groups
 distr:  one band on NCORES_PER_BAND=   5 cores,    4 groups


--------------------------------------------------------------------------------------------------------


 INCAR:
 POTCAR:    PAW_PBE Mg_pv 13Apr2007               
 POTCAR:    PAW_PBE S 06Sep2000                   
 POTCAR:    PAW_PBE Mg_pv 13Apr2007               
   VRHFIN =Mg: p6s2                                                             
   LEXCH  = PE                                                                  
   EATOM  =  1056.7344 eV,   77.6678 Ry                                         
                                                                                
   TITEL  = PAW_PBE Mg_pv 13Apr2007                                             
   LULTRA =        F    use ultrasoft PP ?                                      
   IUNSCR =        1    unscreen: 0-lin 1-nonlin 2-no                           
   RPACOR =    1.500    partial core radius                                     
   POMASS =   24.305; ZVAL   =    8.000    mass and valenz                      
   RCORE  =    2.000    outmost cutoff radius                                   
   RWIGS  =    2.000; RWIGS  =    1.058    wigner-seitz radius (au A)           
   ENMAX  =  403.929; ENMIN  =  302.947 eV                                      
   RCLOC  =    1.506    cutoff for local pot                                    
   LCOR   =        T    correct aug charges                                     
   LPAW   =        T    paw PP                                                  
   EAUG   =  758.780                                                            
   DEXC   =    0.000                                                            
   RMAX   =    2.045    core radius for proj-oper                               
   RAUG   =    1.300    factor for augmentation sphere                          
   RDEP   =    2.025    radius for radial grids                                 
   RDEPT  =    1.557    core radius for aug-charge                              
                                                                                
   Atomic configuration                                                         
    5 entries                                                                   
     n  l   j            E        occ.                                          
     1  0  0.50     -1259.6230   2.0000                                         
     2  0  0.50       -79.8442   2.0000                                         
     2  1  1.50       -46.6121   6.0000                                         
     3  0  0.50        -4.7055   2.0000                                         
     3  2  1.50        -1.3606   0.0000                                         
   Description                                                                  
     l       E           TYP  RCUT    TYP  RCUT                                 
     1    -46.6121073     23  1.600                                             
     1      2.7211652     23  1.600                                             
     0     -4.7054661     23  2.000                                             
     0     61.2262170     23  2.000                                             
     2     -1.3605826     23  2.000                                             
  local pseudopotential read in
  partial core-charges read in
  partial kinetic energy density read in
  atomic valenz-charges read in
  non local Contribution for L=           1  read in
    real space projection operators read in
  non local Contribution for L=           1  read in
    real space projection operators read in
  non local Contribution for L=           0  read in
    real space projection operators read in
  non local Contribution for L=           0  read in
    real space projection operators read in
  non local Contribution for L=           2  read in
    real space projection operators read in
    PAW grid and wavefunctions read in
 
   number of l-projection  operators is LMAX  =           5
   number of lm-projection operators is LMMAX =          13
 
 POTCAR:    PAW_PBE S 06Sep2000                   
   VRHFIN =S : s2p4                                                             
   LEXCH  = PE                                                                  
   EATOM  =   276.8230 eV,   20.3459 Ry                                         
                                                                                
   TITEL  = PAW_PBE S 06Sep2000                                                 
   LULTRA =        F    use ultrasoft PP ?                                      
   IUNSCR =        1    unscreen: 0-lin 1-nonlin 2-no                           
   RPACOR =    1.500    partial core radius                                     
   POMASS =   32.066; ZVAL   =    6.000    mass and valenz                      
   RCORE  =    1.900    outmost cutoff radius                                   
   RWIGS  =    2.200; RWIGS  =    1.164    wigner-seitz radius (au A)           
   ENMAX  =  258.689; ENMIN  =  194.016 eV                                      
   ICORE  =        2    local potential                                         
   LCOR   =        T    correct aug charges                                     
   LPAW   =        T    paw PP                                                  
   EAUG   =  335.092                                                            
   DEXC   =    0.000                                                            
   RMAX   =    1.942    core radius for proj-oper                               
   RAUG   =    1.300    factor for augmentation sphere                          
   RDEP   =    1.954    radius for radial grids                                 
   RDEPT  =    1.744    core radius for aug-charge                              
                                                                                
   Atomic configuration                                                         
    6 entries                                                                   
     n  l   j            E        occ.                                          
     1  0  0.50     -2405.8406   2.0000                                         
     2  0  0.50      -211.7007   2.0000                                         
     2  1  1.50      -156.4958   6.0000                                         
     3  0  0.50       -17.2562   2.0000                                         
     3  1  0.50        -7.0085   4.0000                                         
     3  2  1.50        -6.8029   0.0000                                         
   Description                                                                  
     l       E           TYP  RCUT    TYP  RCUT                                 
     0    -17.2561641     23  1.900                                             
     0    -15.8743224     23  1.900                                             
     1     -7.0085400     23  1.900                                             
     1     -2.7779785     23  1.900                                             
     2     -6.8029130     23  1.900                                             
  local pseudopotential read in
  partial core-charges read in
  partial kinetic energy density read in
  atomic valenz-charges read in
  non local Contribution for L=           0  read in
    real space projection operators read in
  non local Contribution for L=           0  read in
    real space projection operators read in
  non local Contribution for L=           1  read in
    real space projection operators read in
  non local Contribution for L=           1  read in
    real space projection operators read in
    PAW grid and wavefunctions read in
 
   number of l-projection  operators is LMAX  =           4
   number of lm-projection operators is LMMAX =           8
 

 ----------------------------------------------------------------------------- 
|                                                                             |
|  ADVICE TO THIS USER RUNNING 'VASP/VAMP'   (HEAR YOUR MASTER'S VOICE ...):  |
|                                                                             |
|      You enforced a specific xc-type in the INCAR file,                     |
|      a different type was found on the POTCAR file                          |
|          I HOPE YOU KNOW, WHAT YOU ARE  DOING                               |
|                                                                             |
 ----------------------------------------------------------------------------- 

  PAW_PBE Mg_pv 13Apr2007               :
 energy of atom  1       EATOM=-1056.7344
 kinetic energy error for atom=    0.0336 (will be added to EATOM!!)
  PAW_PBE S 06Sep2000                   :
 energy of atom  2       EATOM= -276.8230
 kinetic energy error for atom=    0.0015 (will be added to EATOM!!)
 
 
 POSCAR:  Mg S                                   
  positions in direct lattice
  No initial velocities read in
 exchange correlation table for  LEXCH =       14
   RHO(1)=    0.500       N(1)  =     2000
   RHO(2)=  100.500       N(2)  =     4000
 


--------------------------------------------------------------------------------------------------------


 ion  position               nearest neighbor table
   1  0.000  0.000  0.000-   5 2.62   7 2.62   8 2.62   7 2.62   8 2.62   5 2.62
   2  0.000  0.500  0.500-   6 2.62   7 2.62   8 2.62   8 2.62   7 2.62   6 2.62
   3  0.500  0.000  0.500-   5 2.62   6 2.62   7 2.62   5 2.62   6 2.62   7 2.62
   4  0.500  0.500  0.000-   5 2.62   6 2.62   8 2.62   6 2.62   5 2.62   8 2.62
   5  0.500  0.000  0.000-   1 2.62   3 2.62   4 2.62   3 2.62   4 2.62   1 2.62
   6  0.500  0.500  0.500-   2 2.62   3 2.62   4 2.62   4 2.62   3 2.62   2 2.62
   7  0.000  0.000  0.500-   1 2.62   2 2.62   3 2.62   1 2.62   2 2.62   3 2.62
   8  0.000  0.500  0.000-   1 2.62   2 2.62   4 2.62   2 2.62   1 2.62   4 2.62
 
  LATTYP: Found a simple cubic cell.
 ALAT       =     5.2491513437
  
  Lattice vectors:
  
 A1 = (   5.2491513437,   0.0000000000,   0.0000000000)
 A2 = (   0.0000000000,   5.2491513437,   0.0000000000)
 A3 = (   0.0000000000,   0.0000000000,   5.2491513437)


Analysis of symmetry for initial positions (statically):
=====================================================================
 Subroutine PRICEL returns following result:
 
  LATTYP: Found a face centered cubic cell.
 ALAT       =     5.2491513437
  
  Lattice vectors:
  
 A1 = (   2.6245756718,   2.6245756718,   0.0000000000)
 A2 = (   2.6245756718,   0.0000000000,  -2.6245756718)
 A3 = (   0.0000000000,   2.6245756718,  -2.6245756718)
 
   4 primitive cells build up your supercell.
 

 Routine SETGRP: Setting up the symmetry group for a 
 simple cubic supercell.


 Subroutine GETGRP returns: Found 48 space group operations
 (whereof 48 operations were pure point group operations)
 out of a pool of 48 trial point group operations.


The static configuration has the point symmetry O_h .


Analysis of symmetry for dynamics (positions and initial velocities):
=====================================================================
 Subroutine PRICEL returns following result:
 
  LATTYP: Found a face centered cubic cell.
 ALAT       =     5.2491513437
  
  Lattice vectors:
  
 A1 = (   2.6245756718,   2.6245756718,   0.0000000000)
 A2 = (   2.6245756718,   0.0000000000,  -2.6245756718)
 A3 = (   0.0000000000,   2.6245756718,  -2.6245756718)
 
   4 primitive cells build up your supercell.
 

 Routine SETGRP: Setting up the symmetry group for a 
 simple cubic supercell.


 Subroutine GETGRP returns: Found 48 space group operations
 (whereof 48 operations were pure point group operations)
 out of a pool of 48 trial point group operations.


The dynamic configuration has the point symmetry O_h .
 
 
 KPOINTS: Automatic mesh                          

Automatic generation of k-mesh.
Space group operators:
 irot       det(A)        alpha          n_x          n_y          n_z        tau_x        tau_y        tau_z
    1     1.000000     0.000001     1.000000     0.000000     0.000000     0.000000     0.000000     0.000000
    2    -1.000000     0.000001     1.000000     0.000000     0.000000     0.000000     0.000000     0.000000
    3     1.000000   120.000000    -0.577350    -0.577350    -0.577350     0.000000     0.000000     0.000000
    4    -1.000000   120.000000    -0.577350    -0.577350    -0.577350     0.000000     0.000000     0.000000
    5     1.000000   120.000000     0.577350     0.577350     0.577350     0.000000     0.000000     0.000000
    6    -1.000000   120.000000     0.577350     0.577350     0.577350     0.000000     0.000000     0.000000
    7     1.000000    90.000000     0.000000     0.000000    -1.000000     0.000000     0.000000     0.000000
    8    -1.000000    90.000000     0.000000     0.000000    -1.000000     0.000000     0.000000     0.000000
    9     1.000000   180.000000     0.000000     0.707107     0.707107     0.000000     0.000000     0.000000
   10    -1.000000   180.000000     0.000000     0.707107     0.707107     0.000000     0.000000     0.000000
   11     1.000000    90.000000     0.000000     1.000000     0.000000     0.000000     0.000000     0.000000
   12    -1.000000    90.000000     0.000000     1.000000     0.000000     0.000000     0.000000     0.000000
   13     1.000000   180.000000     0.000000     0.000000     1.000000     0.000000     0.000000     0.000000
   14    -1.000000   180.000000     0.000000     0.000000     1.000000     0.000000     0.000000     0.000000
   15     1.000000   120.000000    -0.577350     0.577350     0.577350     0.000000     0.000000     0.000000
   16    -1.000000   120.000000    -0.577350     0.577350     0.577350     0.000000     0.000000     0.000000
   17     1.000000   120.000000    -0.577350     0.577350    -0.577350     0.000000     0.000000     0.000000
   18    -1.000000   120.000000    -0.577350     0.577350    -0.577350     0.000000     0.000000     0.000000
   19     1.000000    90.000000     0.000000     0.000000     1.000000     0.000000     0.000000     0.000000
   20    -1.000000    90.000000     0.000000     0.000000     1.000000     0.000000     0.000000     0.000000
   21     1.000000    90.000000    -1.000000     0.000000     0.000000     0.000000     0.000000     0.000000
   22    -1.000000    90.000000    -1.000000     0.000000     0.000000     0.000000     0.000000     0.000000
   23     1.000000   180.000000     0.707107     0.000000     0.707107     0.000000     0.000000     0.000000
   24    -1.000000   180.000000     0.707107     0.000000     0.707107     0.000000     0.000000     0.000000
   25     1.000000   120.000000     0.577350    -0.577350     0.577350     0.000000     0.000000     0.000000
   26    -1.000000   120.000000     0.577350    -0.577350     0.577350     0.000000     0.000000     0.000000
   27     1.000000   120.000000    -0.577350    -0.577350     0.577350     0.000000     0.000000     0.000000
   28    -1.000000   120.000000    -0.577350    -0.577350     0.577350     0.000000     0.000000     0.000000
   29     1.000000   180.000000     1.000000     0.000000     0.000000     0.000000     0.000000     0.000000
   30    -1.000000   180.000000     1.000000     0.000000     0.000000     0.000000     0.000000     0.000000
   31     1.000000    90.000000     0.000000    -1.000000     0.000000     0.000000     0.000000     0.000000
   32    -1.000000    90.000000     0.000000    -1.000000     0.000000     0.000000     0.000000     0.000000
   33     1.000000   180.000000     0.707107     0.707107     0.000000     0.000000     0.000000     0.000000
   34    -1.000000   180.000000     0.707107     0.707107     0.000000     0.000000     0.000000     0.000000
   35     1.000000    90.000000     1.000000     0.000000     0.000000     0.000000     0.000000     0.000000
   36    -1.000000    90.000000     1.000000     0.000000     0.000000     0.000000     0.000000     0.000000
   37     1.000000   120.000000     0.577350    -0.577350    -0.577350     0.000000     0.000000     0.000000
   38    -1.000000   120.000000     0.577350    -0.577350    -0.577350     0.000000     0.000000     0.000000
   39     1.000000   180.000000     0.000000     1.000000     0.000000     0.000000     0.000000     0.000000
   40    -1.000000   180.000000     0.000000     1.000000     0.000000     0.000000     0.000000     0.000000
   41     1.000000   120.000000     0.577350     0.577350    -0.577350     0.000000     0.000000     0.000000
   42    -1.000000   120.000000     0.577350     0.577350    -0.577350     0.000000     0.000000     0.000000
   43     1.000000   180.000000     0.000000    -0.707107     0.707107     0.000000     0.000000     0.000000
   44    -1.000000   180.000000     0.000000    -0.707107     0.707107     0.000000     0.000000     0.000000
   45     1.000000   180.000000     0.707107    -0.707107     0.000000     0.000000     0.000000     0.000000
   46    -1.000000   180.000000     0.707107    -0.707107     0.000000     0.000000     0.000000     0.000000
   47     1.000000   180.000000     0.707107     0.000000    -0.707107     0.000000     0.000000     0.000000
   48    -1.000000   180.000000     0.707107     0.000000    -0.707107     0.000000     0.000000     0.000000
 
 Subroutine IBZKPT returns following result:
 ===========================================
 
 Found     10 irreducible k-points:
 
 Following reciprocal coordinates:
            Coordinates               Weight
  0.000000  0.000000  0.000000      1.000000
  0.250000  0.000000  0.000000      6.000000
  0.500000  0.000000  0.000000      3.000000
  0.250000  0.250000  0.000000     12.000000
  0.500000  0.250000  0.000000     12.000000
  0.500000  0.500000  0.000000      3.000000
  0.250000  0.250000  0.250000      8.000000
  0.500000  0.250000  0.250000     12.000000
  0.500000  0.500000  0.250000      6.000000
  0.500000  0.500000  0.500000      1.000000
 
 Following cartesian coordinates:
            Coordinates               Weight
  0.000000  0.000000  0.000000      1.000000
  0.047627  0.000000  0.000000      6.000000
  0.095253  0.000000  0.000000      3.000000
  0.047627  0.047627  0.000000     12.000000
  0.095253  0.047627  0.000000     12.000000
  0.095253  0.095253  0.000000      3.000000
  0.047627  0.047627  0.047627      8.000000
  0.095253  0.047627  0.047627     12.000000
  0.095253  0.095253  0.047627      6.000000
  0.095253  0.095253  0.095253      1.000000
 


--------------------------------------------------------------------------------------------------------




 Dimension of arrays:
   k-points           NKPTS =     10   k-points in BZ     NKDIM =     10   number of bands    NBANDS=     36
   number of dos      NEDOS =    301   number of ions     NIONS =      8
   non local maximal  LDIM  =      5   non local SUM 2l+1 LMDIM =     13
   total plane-waves  NPLWV =  64000
   max r-space proj   IRMAX =      1   max aug-charges    IRDMAX= 111714
   dimension x,y,z NGX =    40 NGY =   40 NGZ =   40
   dimension x,y,z NGXF=    80 NGYF=   80 NGZF=   80
   support grid    NGXF=   160 NGYF=  160 NGZF=  160
   ions per type =               4   4
 NGX,Y,Z   is equivalent  to a cutoff of  12.67, 12.67, 12.67 a.u.
 NGXF,Y,Z  is equivalent  to a cutoff of  25.34, 25.34, 25.34 a.u.


 I would recommend the setting:
   dimension x,y,z NGX =    39 NGY =   39 NGZ =   39
 SYSTEM =  unknown system                          
 POSCAR =   Mg S                                   

 Startparameter for this run:
   NWRITE =      2    write-flag & timer
   PREC   = accura    normal or accurate (medium, high low for compatibility)
   ISTART =      0    job   : 0-new  1-cont  2-samecut
   ICHARG =      2    charge: 1-file 2-atom 10-const
   ISPIN  =      1    spin polarized calculation?
   LNONCOLLINEAR =      F non collinear calculations
   LSORBIT =      F    spin-orbit coupling
   INIWAV =      1    electr: 0-lowe 1-rand  2-diag
   LASPH  =      F    aspherical Exc in radial PAW
   METAGGA=      F    non-selfconsistent MetaGGA calc.

 Electronic Relaxation 1
   ENCUT  =  525.1 eV  38.59 Ry    6.21 a.u.   9.81  9.81  9.81*2*pi/ulx,y,z
   ENINI  =  525.1     initial cutoff
   ENAUG  =  758.8 eV  augmentation charge cutoff
   NELM   =     60;   NELMIN=  5; NELMDL= -5     # of ELM steps 
   EDIFF  = 0.1E-07   stopping-criterion for ELM
   LREAL  =      F    real-space projection
   NLSPLINE    = F    spline interpolate recip. space projectors
   LCOMPAT=      F    compatible to vasp.4.4
   GGA_COMPAT  = T    GGA compatible to vasp.4.4-vasp.4.6
   LMAXPAW     = -100 max onsite density
   LMAXMIX     =    2 max onsite mixed and CHGCAR
   VOSKOWN=      0    Vosko Wilk Nusair interpolation
   ROPT   =    0.00000   0.00000
 Ionic relaxation
   EDIFFG = -.1E-07   stopping-criterion for IOM
   NSW    =     20    number of steps for IOM
   NBLOCK =      1;   KBLOCK =     20    inner block; outer block 
   IBRION =      2    ionic relax: 0-MD 1-quasi-New 2-CG
   NFREE  =      1    steps in history (QN), initial steepest desc. (CG)
   ISIF   =      4    stress and relaxation
   IWAVPR =     11    prediction:  0-non 1-charg 2-wave 3-comb
   ISYM   =      2    0-nonsym 1-usesym 2-fastsym
   LCORR  =      T    Harris-Foulkes like correction to forces

   POTIM  = 0.5000    time-step for ionic-motion
   TEIN   =    0.0    initial temperature
   TEBEG  =    0.0;   TEEND  =   0.0 temperature during run
   SMASS  =  -3.00    Nose mass-parameter (am)
   estimated Nose-frequenzy (Omega)   =  0.10E-29 period in steps =****** mass=  -0.630E-27a.u.
   SCALEE = 1.0000    scale energy and forces
   NPACO  =    256;   APACO  = 16.0  distance and # of slots for P.C.
   PSTRESS=    0.0 pullay stress

  Mass of Ions in am
   POMASS =  24.30 32.07
  Ionic Valenz
   ZVAL   =   8.00  6.00
  Atomic Wigner-Seitz radii
   RWIGS  =  -1.00 -1.00
  virtual crystal weights 
   VCA    =   1.00  1.00
   NELECT =      56.0000    total number of electrons
   NUPDOWN=      -1.0000    fix difference up-down

 DOS related values:
   EMIN   =  10.00;   EMAX   =-10.00  energy-range for DOS
   EFERMI =   0.00
   ISMEAR =     0;   SIGMA  =   0.01  broadening in eV -4-tet -1-fermi 0-gaus

 Electronic relaxation 2 (details)
   IALGO  =     38    algorithm
   LDIAG  =      T    sub-space diagonalisation (order eigenvalues)
   LSUBROT=      F    optimize rotation matrix (better conditioning)
   TURBO    =      0    0=normal 1=particle mesh
   IRESTART =      0    0=no restart 2=restart with 2 vectors
   NREBOOT  =      0    no. of reboots
   NMIN     =      0    reboot dimension
   EREF     =   0.00    reference energy to select bands
   IMIX   =      4    mixing-type and parameters
     AMIX     =   0.40;   BMIX     =  1.00
     AMIX_MAG =   1.60;   BMIX_MAG =  1.00
     AMIN     =   0.10
     WC   =   100.;   INIMIX=   1;  MIXPRE=   1;  MAXMIX= -45

 Intra band minimization:
   WEIMIN = 0.0010     energy-eigenvalue tresh-hold
   EBREAK =  0.69E-11  absolut break condition
   DEPER  =   0.30     relativ break condition  

   TIME   =   0.40     timestep for ELM

  volume/ion in A,a.u.               =      18.08       122.00
  Fermi-wavevector in a.u.,A,eV,Ry     =   1.193205  2.254831 19.371135  1.423738
  Thomas-Fermi vector in A             =   2.329225
 
 Write flags
   LWAVE  =      F    write WAVECAR
   LCHARG =      F    write CHGCAR
   LVTOT  =      F    write LOCPOT, total local potential
   LVHAR  =      F    write LOCPOT, Hartree potential only
   LELF   =      F    write electronic localiz. function (ELF)
   LORBIT =      0    0 simple, 1 ext, 2 COOP (PROOUT)


 Dipole corrections
   LMONO  =      F    monopole corrections only (constant potential shift)
   LDIPOL =      F    correct potential (dipole corrections)
   IDIPOL =      0    1-x, 2-y, 3-z, 4-all directions 
   EPSILON=  1.0000000 bulk dielectric constant

 Exchange correlation treatment:
   GGA     =    PS    GGA type
   LEXCH   =    14    internal setting for exchange type
   VOSKOWN=      0    Vosko Wilk Nusair interpolation
   LHFCALC =     F    Hartree Fock is set to
   LHFONE  =     F    Hartree Fock one center treatment
   AEXX    =    0.0000 exact exchange contribution

 Linear response parameters
   LEPSILON=     F    determine dielectric tensor
   LRPA    =     F    only Hartree local field effects (RPA)
   LNABLA  =     F    use nabla operator in PAW spheres
   LVEL    =     F    velocity operator in full k-point grid
   LINTERFAST=   F  fast interpolation
   KINTER  =     0    interpolate to denser k-point grid
   CSHIFT  =0.1000    complex shift for real part using Kramers Kronig
   OMEGAMAX=  -1.0    maximum frequency
   DEG_THRESHOLD= 0.2000000E-02 threshold for treating states as degnerate
   RTIME   =    0.100 relaxation time in fs

 Orbital magnetization related:
   ORBITALMAG=     F  switch on orbital magnetization
   LCHIMAG   =     F  perturbation theory with respect to B field
   DQ        =  0.001000  dq finite difference perturbation B field



--------------------------------------------------------------------------------------------------------


 conjugate gradient relaxation of ions
 charge density and potential will be updated during run
 non-spin polarized calculation
 Variant of blocked Davidson
 Davidson routine will perform the subspace rotation
 perform sub-space diagonalisation
    after iterative eigenvector-optimisation
 modified Broyden-mixing scheme, WC =      100.0
 initial mixing is a Kerker type mixing with AMIX =  0.4000 and BMIX =      1.0000
 Hartree-type preconditioning will be used
 using additional bands            8
 reciprocal scheme for non local part
 use partial core corrections
 calculate Harris-corrections to forces 
   (improved forces if not selfconsistent)
 use gradient corrections 
 use of overlap-Matrix (Vanderbilt PP)
 Gauss-broadening in eV      SIGMA  =   0.01


--------------------------------------------------------------------------------------------------------


  energy-cutoff  :      525.11
  volume of cell :      144.63
      direct lattice vectors                 reciprocal lattice vectors
     5.249151344  0.000000000  0.000000000     0.190506986  0.000000000  0.000000000
     0.000000000  5.249151344  0.000000000     0.000000000  0.190506986  0.000000000
     0.000000000  0.000000000  5.249151344     0.000000000  0.000000000  0.190506986

  length of vectors
     5.249151344  5.249151344  5.249151344     0.190506986  0.190506986  0.190506986


 
 k-points in units of 2pi/SCALE and weight: Automatic mesh                          
   0.00000000  0.00000000  0.00000000       0.016
   0.04762675  0.00000000  0.00000000       0.094
   0.09525349  0.00000000  0.00000000       0.047
   0.04762675  0.04762675  0.00000000       0.188
   0.09525349  0.04762675  0.00000000       0.188
   0.09525349  0.09525349  0.00000000       0.047
   0.04762675  0.04762675  0.04762675       0.125
   0.09525349  0.04762675  0.04762675       0.188
   0.09525349  0.09525349  0.04762675       0.094
   0.09525349  0.09525349  0.09525349       0.016
 
 k-points in reciprocal lattice and weights: Automatic mesh                          
   0.00000000  0.00000000  0.00000000       0.016
   0.25000000  0.00000000  0.00000000       0.094
   0.50000000  0.00000000  0.00000000       0.047
   0.25000000  0.25000000  0.00000000       0.188
   0.50000000  0.25000000  0.00000000       0.188
   0.50000000  0.50000000  0.00000000       0.047
   0.25000000  0.25000000  0.25000000       0.125
   0.50000000  0.25000000  0.25000000       0.188
   0.50000000  0.50000000  0.25000000       0.094
   0.50000000  0.50000000  0.50000000       0.016
 
 position of ions in fractional coordinates (direct lattice) 
   0.00000000  0.00000000  0.00000000
   0.00000000  0.50000000  0.50000000
   0.50000000  0.00000000  0.50000000
   0.50000000  0.50000000  0.00000000
   0.50000000  0.00000000  0.00000000
   0.50000000  0.50000000  0.50000000
   0.00000000  0.00000000  0.50000000
   0.00000000  0.50000000  0.00000000
 
 position of ions in cartesian coordinates  (Angst):
   0.00000000  0.00000000  0.00000000
   0.00000000  2.62457567  2.62457567
   2.62457567  0.00000000  2.62457567
   2.62457567  2.62457567  0.00000000
   2.62457567  0.00000000  0.00000000
   2.62457567  2.62457567  2.62457567
   0.00000000  0.00000000  2.62457567
   0.00000000  2.62457567  0.00000000
 


--------------------------------------------------------------------------------------------------------


 k-point  1 :   0.0000 0.0000 0.0000  plane waves:    3911
 k-point  2 :   0.2500 0.0000 0.0000  plane waves:    3948
 k-point  3 :   0.5000 0.0000 0.0000  plane waves:    3948
 k-point  4 :   0.2500 0.2500 0.0000  plane waves:    3974
 k-point  5 :   0.5000 0.2500 0.0000  plane waves:    3948
 k-point  6 :   0.5000 0.5000 0.0000  plane waves:    3932
 k-point  7 :   0.2500 0.2500 0.2500  plane waves:    3977
 k-point  8 :   0.5000 0.2500 0.2500  plane waves:    3940
 k-point  9 :   0.5000 0.5000 0.2500  plane waves:    3968
 k-point 10 :   0.5000 0.5000 0.5000  plane waves:    3912

 maximum and minimum number of plane-waves per node :       816      759

 maximum number of plane-waves:      3977
 maximum index in each direction: 
   IXMAX=    9   IYMAX=    9   IZMAX=    9
   IXMIN=  -10   IYMIN=  -10   IZMIN=  -10

 NGX is ok and might be reduce to  40
 NGY is ok and might be reduce to  40
 NGZ is ok and might be reduce to  40

 parallel 3D FFT for wavefunctions:
    minimum data exchange during FFTs selected (reduces bandwidth)
 parallel 3D FFT for charge:
    minimum data exchange during FFTs selected (reduces bandwidth)


 total amount of memory used by VASP on root node    39084. kBytes
========================================================================

   base      :      30000. kBytes
   nonl-proj :       1757. kBytes
   fftplans  :       4155. kBytes
   grid      :       1976. kBytes
   one-center:         16. kBytes
   wavefun   :       1180. kBytes
 
     INWAV:  cpu time    0.00: real time    0.00
 Broyden mixing: mesh for mixing (old mesh)
   NGX = 19   NGY = 19   NGZ = 19
  (NGX  = 80   NGY  = 80   NGZ  = 80)
  gives a total of   6859 points

 initial charge density was supplied:
 charge density of overlapping atoms calculated
 number of electron      56.0000000 magnetization 
 keeping initial charge density in first step


--------------------------------------------------------------------------------------------------------


 Maximum index for augmentation-charges         5711 (set IRDMAX)


--------------------------------------------------------------------------------------------------------


 First call to EWALD:  gamma=   0.338
 Maximum number of real-space cells 3x 3x 3
 Maximum number of reciprocal cells 3x 3x 3

 FEWALD executed in parallel
    FEWALD:  cpu time    0.00: real time    0.00


----------------------------------------- Iteration    1(   1)  ---------------------------------------


    POTLOK:  cpu time    0.02: real time    0.02
    SETDIJ:  cpu time    0.03: real time    0.03
     EDDAV:  cpu time    0.29: real time    0.29
       DOS:  cpu time    0.00: real time    0.00
    --------------------------------------------
      LOOP:  cpu time    0.34: real time    0.35

 eigenvalue-minimisations  :   904
 total energy-change (2. order) : 0.4470099E+03  (-0.3450059E+04)
 number of electron      56.0000000 magnetization 
 augmentation part       56.0000000 magnetization 

 Free energy of the ion-electron system (eV)
  ---------------------------------------------------
  alpha Z        PSCENC =       146.80348245
  Ewald energy   TEWEN  =     -3089.46269368
  -Hartree energ DENC   =     -1182.04679383
  -exchange      EXHF   =         0.00000000
  -V(xc)+E(xc)   XCENC  =       158.79937884
  PAW double counting   =      3462.71711756    -3919.80126840
  entropy T*S    EENTRO =        -0.00067033
  eigenvalues    EBANDS =      -451.70405796
  atomic energy  EATOM  =      5321.70543053
  ---------------------------------------------------
  free energy    TOTEN  =       447.00992517 eV

  energy without entropy =      447.01059550  energy(sigma->0) =      447.01026033


--------------------------------------------------------------------------------------------------------




----------------------------------------- Iteration    1(   2)  ---------------------------------------


     EDDAV:  cpu time    0.27: real time    0.27
       DOS:  cpu time    0.00: real time    0.00
    --------------------------------------------
      LOOP:  cpu time    0.27: real time    0.27

 eigenvalue-minimisations  :   868
 total energy-change (2. order) :-0.4508556E+03  (-0.4376432E+03)
 number of electron      56.0000000 magnetization 
 augmentation part       56.0000000 magnetization 

 Free energy of the ion-electron system (eV)
  ---------------------------------------------------
  alpha Z        PSCENC =       146.80348245
  Ewald energy   TEWEN  =     -3089.46269368
  -Hartree energ DENC   =     -1182.04679383
  -exchange      EXHF   =         0.00000000
  -V(xc)+E(xc)   XCENC  =       158.79937884
  PAW double counting   =      3462.71711756    -3919.80126840
  entropy T*S    EENTRO =         0.00000000
  eigenvalues    EBANDS =      -902.56032597
  atomic energy  EATOM  =      5321.70543053
  ---------------------------------------------------
  free energy    TOTEN  =        -3.84567251 eV

  energy without entropy =       -3.84567251  energy(sigma->0) =       -3.84567251


--------------------------------------------------------------------------------------------------------




----------------------------------------- Iteration    1(   3)  ---------------------------------------


     EDDAV:  cpu time    0.26: real time    0.26
       DOS:  cpu time    0.00: real time    0.00
    --------------------------------------------
      LOOP:  cpu time    0.27: real time    0.27

 eigenvalue-minimisations  :   852
 total energy-change (2. order) :-0.3276428E+02  (-0.3257135E+02)
 number of electron      56.0000000 magnetization 
 augmentation part       56.0000000 magnetization 

 Free energy of the ion-electron system (eV)
  ---------------------------------------------------
  alpha Z        PSCENC =       146.80348245
  Ewald energy   TEWEN  =     -3089.46269368
  -Hartree energ DENC   =     -1182.04679383
  -exchange      EXHF   =         0.00000000
  -V(xc)+E(xc)   XCENC  =       158.79937884
  PAW double counting   =      3462.71711756    -3919.80126840
  entropy T*S    EENTRO =         0.00000000
  eigenvalues    EBANDS =      -935.32461027
  atomic energy  EATOM  =      5321.70543053
  ---------------------------------------------------
  free energy    TOTEN  =       -36.60995681 eV

  energy without entropy =      -36.60995681  energy(sigma->0) =      -36.60995681


--------------------------------------------------------------------------------------------------------




----------------------------------------- Iteration    1(   4)  ---------------------------------------


     EDDAV:  cpu time    0.27: real time    0.27
       DOS:  cpu time    0.00: real time    0.00
    --------------------------------------------
      LOOP:  cpu time    0.27: real time    0.27

 eigenvalue-minimisations  :   872
 total energy-change (2. order) :-0.1080356E+01  (-0.1077993E+01)
 number of electron      56.0000000 magnetization 
 augmentation part       56.0000000 magnetization 

 Free energy of the ion-electron system (eV)
  ---------------------------------------------------
  alpha Z        PSCENC =       146.80348245
  Ewald energy   TEWEN  =     -3089.46269368
  -Hartree energ DENC   =     -1182.04679383
  -exchange      EXHF   =         0.00000000
  -V(xc)+E(xc)   XCENC  =       158.79937884
  PAW double counting   =      3462.71711756    -3919.80126840
  entropy T*S    EENTRO =         0.00000000
  eigenvalues    EBANDS =      -936.40496625
  atomic energy  EATOM  =      5321.70543053
  ---------------------------------------------------
  free energy    TOTEN  =       -37.69031280 eV

  energy without entropy =      -37.69031280  energy(sigma->0) =      -37.69031280


--------------------------------------------------------------------------------------------------------




----------------------------------------- Iteration    1(   5)  ---------------------------------------


     EDDAV:  cpu time    0.27: real time    0.27
       DOS:  cpu time    0.00: real time    0.00
    CHARGE:  cpu time    0.06: real time    0.06
    MIXING:  cpu time    0.00: real time    0.00
    --------------------------------------------
      LOOP:  cpu time    0.33: real time    0.34

 eigenvalue-minimisations  :   892
 total energy-change (2. order) :-0.2763824E-01  (-0.2762771E-01)
 number of electron      56.0000003 magnetization 
 augmentation part       13.1767404 magnetization 

 Broyden mixing:
  rms(total) = 0.82065E+00    rms(broyden)= 0.82058E+00
  rms(prec ) = 0.14094E+01
  weight for this iteration     100.00

 Free energy of the ion-electron system (eV)
  ---------------------------------------------------
  alpha Z        PSCENC =       146.80348245
  Ewald energy   TEWEN  =     -3089.46269368
  -Hartree energ DENC   =     -1182.04679383
  -exchange      EXHF   =         0.00000000
  -V(xc)+E(xc)   XCENC  =       158.79937884
  PAW double counting   =      3462.71711756    -3919.80126840
  entropy T*S    EENTRO =         0.00000000
  eigenvalues    EBANDS =      -936.43260449
  atomic energy  EATOM  =      5321.70543053
  ---------------------------------------------------
  free energy    TOTEN  =       -37.71795103 eV

  energy without entropy =      -37.71795103  energy(sigma->0) =      -37.71795103


--------------------------------------------------------------------------------------------------------




----------------------------------------- Iteration    1(   6)  ---------------------------------------


    POTLOK:  cpu time    0.01: real time    0.02
    SETDIJ:  cpu time    0.03: real time    0.03
     EDDAV:  cpu time    0.24: real time    0.25
       DOS:  cpu time    0.00: real time    0.00
    CHARGE:  cpu time    0.06: real time    0.06
    MIXING:  cpu time    0.00: real time    0.00
    --------------------------------------------
      LOOP:  cpu time    0.35: real time    0.35

 eigenvalue-minimisations  :   772
 total energy-change (2. order) : 0.1365205E+01  (-0.2747166E+00)
 number of electron      56.0000003 magnetization 
 augmentation part       13.3395774 magnetization 

 Broyden mixing:
  rms(total) = 0.60370E+00    rms(broyden)= 0.60369E+00
  rms(prec ) = 0.75573E+00
  weight for this iteration     100.00

 eigenvalues of (default mixing * dielectric matrix)
  average eigenvalue GAMMA=   1.8977
  1.8977

 Free energy of the ion-electron system (eV)
  ---------------------------------------------------
  alpha Z        PSCENC =       146.80348245
  Ewald energy   TEWEN  =     -3089.46269368
  -Hartree energ DENC   =     -1180.52631293
  -exchange      EXHF   =         0.00000000
  -V(xc)+E(xc)   XCENC  =       159.91365174
  PAW double counting   =      3711.33973860    -4164.59408729
  entropy T*S    EENTRO =         0.00000000
  eigenvalues    EBANDS =      -941.53195581
  atomic energy  EATOM  =      5321.70543053
  ---------------------------------------------------
  free energy    TOTEN  =       -36.35274640 eV

  energy without entropy =      -36.35274640  energy(sigma->0) =      -36.35274640


--------------------------------------------------------------------------------------------------------




----------------------------------------- Iteration    1(   7)  ---------------------------------------


    POTLOK:  cpu time    0.01: real time    0.02
    SETDIJ:  cpu time    0.03: real time    0.03
     EDDAV:  cpu time    0.28: real time    0.28
       DOS:  cpu time    0.00: real time    0.00
    CHARGE:  cpu time    0.06: real time    0.06
    MIXING:  cpu time    0.00: real time    0.00
    --------------------------------------------
      LOOP:  cpu time    0.38: real time    0.39

 eigenvalue-minimisations  :   912
 total energy-change (2. order) : 0.1602324E+00  (-0.7513314E-01)
 number of electron      56.0000003 magnetization 
 augmentation part       13.4255062 magnetization 

 Broyden mixing:
  rms(total) = 0.35080E+00    rms(broyden)= 0.35079E+00
  rms(prec ) = 0.38004E+00
  weight for this iteration     100.00

 eigenvalues of (default mixing * dielectric matrix)
  average eigenvalue GAMMA=   2.2501
  1.4299  3.0703

 Free energy of the ion-electron system (eV)
  ---------------------------------------------------
  alpha Z        PSCENC =       146.80348245
  Ewald energy   TEWEN  =     -3089.46269368
  -Hartree energ DENC   =     -1177.03865315
  -exchange      EXHF   =         0.00000000
  -V(xc)+E(xc)   XCENC  =       160.63912349
  PAW double counting   =      4156.45927739    -4608.24552691
  entropy T*S    EENTRO =         0.00000000
  eigenvalues    EBANDS =      -947.05295410
  atomic energy  EATOM  =      5321.70543053
  ---------------------------------------------------
  free energy    TOTEN  =       -36.19251398 eV

  energy without entropy =      -36.19251398  energy(sigma->0) =      -36.19251398


--------------------------------------------------------------------------------------------------------




----------------------------------------- Iteration    1(   8)  ---------------------------------------


    POTLOK:  cpu time    0.01: real time    0.02
    SETDIJ:  cpu time    0.03: real time    0.03
     EDDAV:  cpu time    0.25: real time    0.25
       DOS:  cpu time    0.00: real time    0.00
    CHARGE:  cpu time    0.06: real time    0.06
    MIXING:  cpu time    0.00: real time    0.00
    --------------------------------------------
      LOOP:  cpu time    0.35: real time    0.36

 eigenvalue-minimisations  :   796
 total energy-change (2. order) : 0.7810829E-02  (-0.5055065E-02)
 number of electron      56.0000003 magnetization 
 augmentation part       13.4076942 magnetization 

 Broyden mixing:
  rms(total) = 0.10731E+00    rms(broyden)= 0.10730E+00
  rms(prec ) = 0.11135E+00
  weight for this iteration     100.00

 eigenvalues of (default mixing * dielectric matrix)
  average eigenvalue GAMMA=   1.5800
  2.4895  0.8641  1.3865

 Free energy of the ion-electron system (eV)
  ---------------------------------------------------
  alpha Z        PSCENC =       146.80348245
  Ewald energy   TEWEN  =     -3089.46269368
  -Hartree energ DENC   =     -1172.03279520
  -exchange      EXHF   =         0.00000000
  -V(xc)+E(xc)   XCENC  =       160.84418410
  PAW double counting   =      4729.00694756    -5181.64706834
  entropy T*S    EENTRO =         0.00000000
  eigenvalues    EBANDS =      -951.40219056
  atomic energy  EATOM  =      5321.70543053
  ---------------------------------------------------
  free energy    TOTEN  =       -36.18470315 eV

  energy without entropy =      -36.18470315  energy(sigma->0) =      -36.18470315


--------------------------------------------------------------------------------------------------------




----------------------------------------- Iteration    1(   9)  ---------------------------------------


    POTLOK:  cpu time    0.01: real time    0.02
    SETDIJ:  cpu time    0.03: real time    0.03
     EDDAV:  cpu time    0.27: real time    0.27
       DOS:  cpu time    0.00: real time    0.00
    CHARGE:  cpu time    0.06: real time    0.06
    MIXING:  cpu time    0.00: real time    0.00
    --------------------------------------------
      LOOP:  cpu time    0.38: real time    0.38

 eigenvalue-minimisations  :   860
 total energy-change (2. order) : 0.9520176E-03  (-0.2751564E-03)
 number of electron      56.0000003 magnetization 
 augmentation part       13.4117346 magnetization 

 Broyden mixing:
  rms(total) = 0.31687E-01    rms(broyden)= 0.31687E-01
  rms(prec ) = 0.32857E-01
  weight for this iteration     100.00

 eigenvalues of (default mixing * dielectric matrix)
  average eigenvalue GAMMA=   1.8096
  2.6324  2.1435  1.1444  1.3180

 Free energy of the ion-electron system (eV)
  ---------------------------------------------------
  alpha Z        PSCENC =       146.80348245
  Ewald energy   TEWEN  =     -3089.46269368
  -Hartree energ DENC   =     -1172.65795156
  -exchange      EXHF   =         0.00000000
  -V(xc)+E(xc)   XCENC  =       160.82428932
  PAW double counting   =      4622.06912593    -5074.55378271
  entropy T*S    EENTRO =         0.00000000
  eigenvalues    EBANDS =      -950.91165141
  atomic energy  EATOM  =      5321.70543053
  ---------------------------------------------------
  free energy    TOTEN  =       -36.18375114 eV

  energy without entropy =      -36.18375114  energy(sigma->0) =      -36.18375114


--------------------------------------------------------------------------------------------------------




----------------------------------------- Iteration    1(  10)  ---------------------------------------


    POTLOK:  cpu time    0.01: real time    0.02
    SETDIJ:  cpu time    0.03: real time    0.03
     EDDAV:  cpu time    0.28: real time    0.28
       DOS:  cpu time    0.00: real time    0.00
    CHARGE:  cpu time    0.06: real time    0.06
    MIXING:  cpu time    0.00: real time    0.00
    --------------------------------------------
      LOOP:  cpu time    0.39: real time    0.39

 eigenvalue-minimisations  :   912
 total energy-change (2. order) :-0.2288167E-04  (-0.6670281E-04)
 number of electron      56.0000003 magnetization 
 augmentation part       13.4142418 magnetization 

 Broyden mixing:
  rms(total) = 0.18621E-02    rms(broyden)= 0.18621E-02
  rms(prec ) = 0.33008E-02
  weight for this iteration     100.00

 eigenvalues of (default mixing * dielectric matrix)
  average eigenvalue GAMMA=   1.6958
  2.7220  2.5055  1.3011  1.0378  0.9128

 Free energy of the ion-electron system (eV)
  ---------------------------------------------------
  alpha Z        PSCENC =       146.80348245
  Ewald energy   TEWEN  =     -3089.46269368
  -Hartree energ DENC   =     -1172.40996750
  -exchange      EXHF   =         0.00000000
  -V(xc)+E(xc)   XCENC  =       160.82536152
  PAW double counting   =      4577.75485024    -5030.27324910
  entropy T*S    EENTRO =         0.00000000
  eigenvalues    EBANDS =      -951.12698848
  atomic energy  EATOM  =      5321.70543053
  ---------------------------------------------------
  free energy    TOTEN  =       -36.18377402 eV

  energy without entropy =      -36.18377402  energy(sigma->0) =      -36.18377402


--------------------------------------------------------------------------------------------------------




----------------------------------------- Iteration    1(  11)  ---------------------------------------


    POTLOK:  cpu time    0.02: real time    0.02
    SETDIJ:  cpu time    0.03: real time    0.03
     EDDAV:  cpu time    0.26: real time    0.26
       DOS:  cpu time    0.00: real time    0.00
    CHARGE:  cpu time    0.06: real time    0.06
    MIXING:  cpu time    0.00: real time    0.00
    --------------------------------------------
      LOOP:  cpu time    0.36: real time    0.37

 eigenvalue-minimisations  :   824
 total energy-change (2. order) : 0.3855416E-05  (-0.3054333E-05)
 number of electron      56.0000003 magnetization 
 augmentation part       13.4138370 magnetization 

 Broyden mixing:
  rms(total) = 0.25761E-02    rms(broyden)= 0.25761E-02
  rms(prec ) = 0.26679E-02
  weight for this iteration     100.00

 eigenvalues of (default mixing * dielectric matrix)
  average eigenvalue GAMMA=   1.6908
  2.7306  2.4157  1.5288  0.9903  1.2397  1.2397

 Free energy of the ion-electron system (eV)
  ---------------------------------------------------
  alpha Z        PSCENC =       146.80348245
  Ewald energy   TEWEN  =     -3089.46269368
  -Hartree energ DENC   =     -1172.35088474
  -exchange      EXHF   =         0.00000000
  -V(xc)+E(xc)   XCENC  =       160.82101645
  PAW double counting   =      4571.64332354    -5024.18960479
  entropy T*S    EENTRO =         0.00000000
  eigenvalues    EBANDS =      -951.15383993
  atomic energy  EATOM  =      5321.70543053
  ---------------------------------------------------
  free energy    TOTEN  =       -36.18377016 eV

  energy without entropy =      -36.18377016  energy(sigma->0) =      -36.18377016


--------------------------------------------------------------------------------------------------------




----------------------------------------- Iteration    1(  12)  ---------------------------------------


    POTLOK:  cpu time    0.02: real time    0.02
    SETDIJ:  cpu time    0.03: real time    0.03
     EDDAV:  cpu time    0.28: real time    0.28
       DOS:  cpu time    0.00: real time    0.00
    CHARGE:  cpu time    0.06: real time    0.06
    MIXING:  cpu time    0.00: real time    0.00
    --------------------------------------------
      LOOP:  cpu time    0.39: real time    0.39

 eigenvalue-minimisations  :   904
 total energy-change (2. order) : 0.7466406E-06  (-0.1778010E-06)
 number of electron      56.0000003 magnetization 
 augmentation part       13.4137208 magnetization 

 Broyden mixing:
  rms(total) = 0.30160E-03    rms(broyden)= 0.30160E-03
  rms(prec ) = 0.39334E-03
  weight for this iteration     100.00

 eigenvalues of (default mixing * dielectric matrix)
  average eigenvalue GAMMA=   1.6898
  2.7602  2.4357  2.4357  1.2271  1.2271  0.9871  0.7560

 Free energy of the ion-electron system (eV)
  ---------------------------------------------------
  alpha Z        PSCENC =       146.80348245
  Ewald energy   TEWEN  =     -3089.46269368
  -Hartree energ DENC   =     -1172.35391742
  -exchange      EXHF   =         0.00000000
  -V(xc)+E(xc)   XCENC  =       160.82139228
  PAW double counting   =      4574.57394235    -5027.12051397
  entropy T*S    EENTRO =         0.00000000
  eigenvalues    EBANDS =      -951.15089195
  atomic energy  EATOM  =      5321.70543053
  ---------------------------------------------------
  free energy    TOTEN  =       -36.18376942 eV

  energy without entropy =      -36.18376942  energy(sigma->0) =      -36.18376942


--------------------------------------------------------------------------------------------------------




----------------------------------------- Iteration    1(  13)  ---------------------------------------


    POTLOK:  cpu time    0.02: real time    0.02
    SETDIJ:  cpu time    0.03: real time    0.03
     EDDAV:  cpu time    0.27: real time    0.27
       DOS:  cpu time    0.00: real time    0.00
    CHARGE:  cpu time    0.06: real time    0.06
    MIXING:  cpu time    0.00: real time    0.00
    --------------------------------------------
      LOOP:  cpu time    0.37: real time    0.38

 eigenvalue-minimisations  :   844
 total energy-change (2. order) : 0.1110193E-06  (-0.2418496E-07)
 number of electron      56.0000003 magnetization 
 augmentation part       13.4136700 magnetization 

 Broyden mixing:
  rms(total) = 0.15765E-03    rms(broyden)= 0.15765E-03
  rms(prec ) = 0.16216E-03
  weight for this iteration     100.00

 eigenvalues of (default mixing * dielectric matrix)
  average eigenvalue GAMMA=   1.6259
  2.8376  2.5377  2.5377  1.1794  1.1794  0.9894  0.8728  0.8728

 Free energy of the ion-electron system (eV)
  ---------------------------------------------------
  alpha Z        PSCENC =       146.80348245
  Ewald energy   TEWEN  =     -3089.46269368
  -Hartree energ DENC   =     -1172.35635731
  -exchange      EXHF   =         0.00000000
  -V(xc)+E(xc)   XCENC  =       160.82121082
  PAW double counting   =      4574.97210988    -5027.52012475
  entropy T*S    EENTRO =         0.00000000
  eigenvalues    EBANDS =      -951.14682724
  atomic energy  EATOM  =      5321.70543053
  ---------------------------------------------------
  free energy    TOTEN  =       -36.18376931 eV

  energy without entropy =      -36.18376931  energy(sigma->0) =      -36.18376931


--------------------------------------------------------------------------------------------------------




----------------------------------------- Iteration    1(  14)  ---------------------------------------


    POTLOK:  cpu time    0.02: real time    0.02
    SETDIJ:  cpu time    0.03: real time    0.03
     EDDAV:  cpu time    0.26: real time    0.26
       DOS:  cpu time    0.00: real time    0.00
    CHARGE:  cpu time    0.06: real time    0.06
    MIXING:  cpu time    0.00: real time    0.00
    --------------------------------------------
      LOOP:  cpu time    0.36: real time    0.36

 eigenvalue-minimisations  :   792
 total energy-change (2. order) : 0.4041067E-07  (-0.1748317E-08)
 number of electron      56.0000003 magnetization 
 augmentation part       13.4136556 magnetization 

 Broyden mixing:
  rms(total) = 0.20664E-03    rms(broyden)= 0.20664E-03
  rms(prec ) = 0.20890E-03
  weight for this iteration     100.00

 eigenvalues of (default mixing * dielectric matrix)
  average eigenvalue GAMMA=   1.7479
  2.9136  2.7789  2.3028  2.3028  1.2600  1.2600  1.0455  0.9797  0.8879

 Free energy of the ion-electron system (eV)
  ---------------------------------------------------
  alpha Z        PSCENC =       146.80348245
  Ewald energy   TEWEN  =     -3089.46269368
  -Hartree energ DENC   =     -1172.35676978
  -exchange      EXHF   =         0.00000000
  -V(xc)+E(xc)   XCENC  =       160.82119201
  PAW double counting   =      4574.99064243    -5027.53900816
  entropy T*S    EENTRO =         0.00000000
  eigenvalues    EBANDS =      -951.14604507
  atomic energy  EATOM  =      5321.70543053
  ---------------------------------------------------
  free energy    TOTEN  =       -36.18376926 eV

  energy without entropy =      -36.18376926  energy(sigma->0) =      -36.18376926


--------------------------------------------------------------------------------------------------------




----------------------------------------- Iteration    1(  15)  ---------------------------------------


    POTLOK:  cpu time    0.02: real time    0.02
    SETDIJ:  cpu time    0.03: real time    0.03
     EDDAV:  cpu time    0.23: real time    0.23
       DOS:  cpu time    0.00: real time    0.00
    CHARGE:  cpu time    0.06: real time    0.06
    MIXING:  cpu time    0.00: real time    0.00
    --------------------------------------------
      LOOP:  cpu time    0.34: real time    0.34

 eigenvalue-minimisations  :   696
 total energy-change (2. order) :-0.5194124E-07  (-0.4939114E-09)
 number of electron      56.0000003 magnetization 
 augmentation part       13.4136587 magnetization 

 Broyden mixing:
  rms(total) = 0.58749E-04    rms(broyden)= 0.58749E-04
  rms(prec ) = 0.59219E-04
  weight for this iteration     100.00

 eigenvalues of (default mixing * dielectric matrix)
  average eigenvalue GAMMA=   1.7503
  3.2152  2.6510  2.5832  2.2942  1.2554  1.2554  1.1824  1.1824  0.8745  1.0087

 Free energy of the ion-electron system (eV)
  ---------------------------------------------------
  alpha Z        PSCENC =       146.80348245
  Ewald energy   TEWEN  =     -3089.46269368
  -Hartree energ DENC   =     -1172.35788667
  -exchange      EXHF   =         0.00000000
  -V(xc)+E(xc)   XCENC  =       160.82117506
  PAW double counting   =      4574.62313520    -5027.17180126
  entropy T*S    EENTRO =         0.00000000
  eigenvalues    EBANDS =      -951.14461095
  atomic energy  EATOM  =      5321.70543053
  ---------------------------------------------------
  free energy    TOTEN  =       -36.18376932 eV

  energy without entropy =      -36.18376932  energy(sigma->0) =      -36.18376932


--------------------------------------------------------------------------------------------------------




----------------------------------------- Iteration    1(  16)  ---------------------------------------


    POTLOK:  cpu time    0.02: real time    0.02
    SETDIJ:  cpu time    0.03: real time    0.03
     EDDAV:  cpu time    0.17: real time    0.17
       DOS:  cpu time    0.00: real time    0.00
    CHARGE:  cpu time    0.06: real time    0.06
    MIXING:  cpu time    0.00: real time    0.00
    --------------------------------------------
      LOOP:  cpu time    0.27: real time    0.27

 eigenvalue-minimisations  :   424
 total energy-change (2. order) : 0.1331045E-07  (-0.1684266E-10)
 number of electron      56.0000003 magnetization 
 augmentation part       13.4136588 magnetization 

 Broyden mixing:
  rms(total) = 0.11455E-04    rms(broyden)= 0.11455E-04
  rms(prec ) = 0.11532E-04
  weight for this iteration     100.00

 eigenvalues of (default mixing * dielectric matrix)
  average eigenvalue GAMMA=   1.6786
  2.9513  2.7734  2.5159  2.3188  1.3543  1.3543  1.1908  1.1908  0.9893  0.9129
  0.9129

 Free energy of the ion-electron system (eV)
  ---------------------------------------------------
  alpha Z        PSCENC =       146.80348245
  Ewald energy   TEWEN  =     -3089.46269368
  -Hartree energ DENC   =     -1172.35783900
  -exchange      EXHF   =         0.00000000
  -V(xc)+E(xc)   XCENC  =       160.82118374
  PAW double counting   =      4574.69000177    -5027.23859076
  entropy T*S    EENTRO =         0.00000000
  eigenvalues    EBANDS =      -951.14474436
  atomic energy  EATOM  =      5321.70543053
  ---------------------------------------------------
  free energy    TOTEN  =       -36.18376930 eV

  energy without entropy =      -36.18376930  energy(sigma->0) =      -36.18376930


--------------------------------------------------------------------------------------------------------




----------------------------------------- Iteration    1(  17)  ---------------------------------------


    POTLOK:  cpu time    0.01: real time    0.02
    SETDIJ:  cpu time    0.03: real time    0.03
     EDDAV:  cpu time    0.17: real time    0.17
       DOS:  cpu time    0.00: real time    0.00
    --------------------------------------------
      LOOP:  cpu time    0.21: real time    0.21

 eigenvalue-minimisations  :   416
 total energy-change (2. order) : 0.3114110E-08  (-0.5149616E-11)
 number of electron      56.0000003 magnetization 
 augmentation part       13.4136588 magnetization 

 Free energy of the ion-electron system (eV)
  ---------------------------------------------------
  alpha Z        PSCENC =       146.80348245
  Ewald energy   TEWEN  =     -3089.46269368
  -Hartree energ DENC   =     -1172.35784628
  -exchange      EXHF   =         0.00000000
  -V(xc)+E(xc)   XCENC  =       160.82118379
  PAW double counting   =      4574.70043407    -5027.24897856
  entropy T*S    EENTRO =         0.00000000
  eigenvalues    EBANDS =      -951.14478162
  atomic energy  EATOM  =      5321.70543053
  ---------------------------------------------------
  free energy    TOTEN  =       -36.18376930 eV

  energy without entropy =      -36.18376930  energy(sigma->0) =      -36.18376930


--------------------------------------------------------------------------------------------------------




 average (electrostatic) potential at core
  the test charge radii are     0.8294  0.9698
  (the norm of the test charge is              1.0000)
       1 -43.0161       2 -43.0161       3 -43.0161       4 -43.0161       5 -86.6130
       6 -86.6130       7 -86.6130       8 -86.6130
 
 
 
 E-fermi :   3.3399     XC(G=0):  -9.9017     alpha+bet :-10.1942


 k-point     1 :       0.0000    0.0000    0.0000
  band No.  band energies     occupation 
      1     -38.0653      2.00000
      2     -38.0653      2.00000
      3     -38.0653      2.00000
      4     -38.0621      2.00000
      5     -38.0621      2.00000
      6     -38.0621      2.00000
      7     -38.0621      2.00000
      8     -38.0621      2.00000
      9     -38.0621      2.00000
     10     -38.0597      2.00000
     11     -38.0597      2.00000
     12     -38.0597      2.00000
     13      -9.2895      2.00000
     14      -7.6720      2.00000
     15      -7.6720      2.00000
     16      -7.6720      2.00000
     17      -0.8676      2.00000
     18      -0.8676      2.00000
     19      -0.8676      2.00000
     20       1.6017      2.00000
     21       1.6017      2.00000
     22       1.6017      2.00000
     23       1.6017      2.00000
     24       1.6017      2.00000
     25       1.6017      2.00000
     26       3.2482      2.00000
     27       3.2482      2.00000
     28       3.2482      2.00000
     29       5.9035      0.00000
     30       5.9035      0.00000
     31       5.9035      0.00000
     32       6.6422      0.00000
     33       7.5658      0.00000
     34       7.5658      0.00000
     35       7.5658      0.00000
     36      11.1145      0.00000

 k-point     2 :       0.2500    0.0000    0.0000
  band No.  band energies     occupation 
      1     -38.0649      2.00000
      2     -38.0649      2.00000
      3     -38.0647      2.00000
      4     -38.0626      2.00000
      5     -38.0626      2.00000
      6     -38.0622      2.00000
      7     -38.0622      2.00000
      8     -38.0619      2.00000
      9     -38.0619      2.00000
     10     -38.0607      2.00000
     11     -38.0601      2.00000
     12     -38.0601      2.00000
     13      -9.0937      2.00000
     14      -7.9640      2.00000
     15      -7.6496      2.00000
     16      -7.6496      2.00000
     17      -0.6204      2.00000
     18      -0.6204      2.00000
     19      -0.4280      2.00000
     20       1.0426      2.00000
     21       1.0426      2.00000
     22       1.2284      2.00000
     23       1.2284      2.00000
     24       1.7894      2.00000
     25       1.7894      2.00000
     26       2.2276      2.00000
     27       2.9314      2.00000
     28       2.9314      2.00000
     29       6.5365      0.00000
     30       6.9159      0.00000
     31       6.9159      0.00000
     32       7.8036      0.00000
     33       7.8768      0.00000
     34       8.6427      0.00000
     35       8.6427      0.00000
     36      10.1498      0.00000

 k-point     3 :       0.5000    0.0000    0.0000
  band No.  band energies     occupation 
      1     -38.0638      2.00000
      2     -38.0638      2.00000
      3     -38.0638      2.00000
      4     -38.0638      2.00000
      5     -38.0627      2.00000
      6     -38.0627      2.00000
      7     -38.0623      2.00000
      8     -38.0623      2.00000
      9     -38.0609      2.00000
     10     -38.0609      2.00000
     11     -38.0609      2.00000
     12     -38.0609      2.00000
     13      -8.5742      2.00000
     14      -8.5742      2.00000
     15      -7.6267      2.00000
     16      -7.6267      2.00000
     17       0.0814      2.00000
     18       0.0814      2.00000
     19       0.0814      2.00000
     20       0.0814      2.00000
     21       0.7118      2.00000
     22       0.7118      2.00000
     23       0.9259      2.00000
     24       0.9259      2.00000
     25       2.3005      2.00000
     26       2.3005      2.00000
     27       2.3005      2.00000
     28       2.3005      2.00000
     29       8.0806      0.00000
     30       8.0806      0.00000
     31       8.3599      0.00000
     32       8.3599      0.00000
     33       8.7856      0.00000
     34       8.7856      0.00000
     35      11.0487      0.00000
     36      11.0511      0.00000

 k-point     4 :       0.2500    0.2500    0.0000
  band No.  band energies     occupation 
      1     -38.0646      2.00000
      2     -38.0646      2.00000
      3     -38.0645      2.00000
      4     -38.0636      2.00000
      5     -38.0623      2.00000
      6     -38.0623      2.00000
      7     -38.0618      2.00000
      8     -38.0617      2.00000
      9     -38.0617      2.00000
     10     -38.0617      2.00000
     11     -38.0605      2.00000
     12     -38.0600      2.00000
     13      -8.9108      2.00000
     14      -7.8959      2.00000
     15      -7.8959      2.00000
     16      -7.6705      2.00000
     17      -0.4510      2.00000
     18      -0.4510      2.00000
     19      -0.3766      2.00000
     20       0.1162      2.00000
     21       1.2509      2.00000
     22       1.2509      2.00000
     23       1.3062      2.00000
     24       1.6909      2.00000
     25       1.6909      2.00000
     26       1.9181      2.00000
     27       2.5530      2.00000
     28       3.1470      2.00000
     29       7.0355      0.00000
     30       7.4543      0.00000
     31       7.4543      0.00000
     32       8.3342      0.00000
     33       8.9057      0.00000
     34       8.9057      0.00000
     35       9.8143      0.00000
     36      10.3416      0.00000

 k-point     5 :       0.5000    0.2500    0.0000
  band No.  band energies     occupation 
      1     -38.0642      2.00000
      2     -38.0642      2.00000
      3     -38.0635      2.00000
      4     -38.0635      2.00000
      5     -38.0634      2.00000
      6     -38.0634      2.00000
      7     -38.0615      2.00000
      8     -38.0615      2.00000
      9     -38.0614      2.00000
     10     -38.0614      2.00000
     11     -38.0606      2.00000
     12     -38.0606      2.00000
     13      -8.4343      2.00000
     14      -8.4343      2.00000
     15      -7.7593      2.00000
     16      -7.7593      2.00000
     17      -0.3994      2.00000
     18      -0.3994      2.00000
     19       0.2038      2.00000
     20       0.2038      2.00000
     21       0.3133      2.00000
     22       0.3133      2.00000
     23       1.8248      2.00000
     24       1.8248      2.00000
     25       1.8289      2.00000
     26       1.8289      2.00000
     27       2.5905      2.00000
     28       2.5905      2.00000
     29       8.3628      0.00000
     30       8.3628      0.00000
     31       8.8567      0.00000
     32       8.8567      0.00000
     33       9.6278      0.00000
     34       9.6278      0.00000
     35      10.1422      0.00000
     36      10.1625      0.00000

 k-point     6 :       0.5000    0.5000    0.0000
  band No.  band energies     occupation 
      1     -38.0643      2.00000
      2     -38.0643      2.00000
      3     -38.0643      2.00000
      4     -38.0643      2.00000
      5     -38.0624      2.00000
      6     -38.0624      2.00000
      7     -38.0624      2.00000
      8     -38.0624      2.00000
      9     -38.0606      2.00000
     10     -38.0606      2.00000
     11     -38.0606      2.00000
     12     -38.0606      2.00000
     13      -8.0939      2.00000
     14      -8.0939      2.00000
     15      -8.0939      2.00000
     16      -8.0939      2.00000
     17      -0.4041      2.00000
     18      -0.4041      2.00000
     19      -0.4041      2.00000
     20      -0.4041      2.00000
     21       0.9634      2.00000
     22       0.9634      2.00000
     23       0.9634      2.00000
     24       0.9634      2.00000
     25       2.6379      2.00000
     26       2.6379      2.00000
     27       2.6379      2.00000
     28       2.6379      2.00000
     29       8.7890      0.00000
     30       8.7890      0.00000
     31       8.7890      0.00000
     32       8.7890      0.00000
     33      10.5677      0.00000
     34      10.5677      0.00000
     35      10.5678      0.00000
     36      10.5737      0.00000

 k-point     7 :       0.2500    0.2500    0.2500
  band No.  band energies     occupation 
      1     -38.0650      2.00000
      2     -38.0650      2.00000
      3     -38.0650      2.00000
      4     -38.0630      2.00000
      5     -38.0623      2.00000
      6     -38.0623      2.00000
      7     -38.0623      2.00000
      8     -38.0615      2.00000
      9     -38.0615      2.00000
     10     -38.0615      2.00000
     11     -38.0602      2.00000
     12     -38.0602      2.00000
     13      -8.7437      2.00000
     14      -7.8658      2.00000
     15      -7.8658      2.00000
     16      -7.8658      2.00000
     17      -0.7300      2.00000
     18      -0.7300      2.00000
     19      -0.7300      2.00000
     20       0.4636      2.00000
     21       1.0833      2.00000
     22       1.0833      2.00000
     23       1.0833      2.00000
     24       2.0728      2.00000
     25       2.0728      2.00000
     26       2.0728      2.00000
     27       2.9371      2.00000
     28       2.9371      2.00000
     29       7.5283      0.00000
     30       7.5283      0.00000
     31       7.5283      0.00000
     32       7.9790      0.00000
     33       9.8456      0.00000
     34       9.8456      0.00000
     35       9.8456      0.00000
     36      10.9590      0.00000

 k-point     8 :       0.5000    0.2500    0.2500
  band No.  band energies     occupation 
      1     -38.0651      2.00000
      2     -38.0651      2.00000
      3     -38.0645      2.00000
      4     -38.0645      2.00000
      5     -38.0622      2.00000
      6     -38.0622      2.00000
      7     -38.0612      2.00000
      8     -38.0612      2.00000
      9     -38.0608      2.00000
     10     -38.0608      2.00000
     11     -38.0608      2.00000
     12     -38.0608      2.00000
     13      -8.3194      2.00000
     14      -8.3194      2.00000
     15      -7.8350      2.00000
     16      -7.8350      2.00000
     17      -0.9875      2.00000
     18      -0.9875      2.00000
     19      -0.4583      2.00000
     20      -0.4583      2.00000
     21       1.1512      2.00000
     22       1.1512      2.00000
     23       2.1256      2.00000
     24       2.1256      2.00000
     25       2.3563      2.00000
     26       2.3563      2.00000
     27       2.4776      2.00000
     28       2.4776      2.00000
     29       8.3486      0.00000
     30       8.3486      0.00000
     31       8.6909      0.00000
     32       8.6909      0.00000
     33       9.1803      0.00000
     34       9.1803      0.00000
     35       9.7317      0.00000
     36       9.7317      0.00000

 k-point     9 :       0.5000    0.5000    0.2500
  band No.  band energies     occupation 
      1     -38.0654      2.00000
      2     -38.0654      2.00000
      3     -38.0654      2.00000
      4     -38.0654      2.00000
      5     -38.0614      2.00000
      6     -38.0614      2.00000
      7     -38.0614      2.00000
      8     -38.0614      2.00000
      9     -38.0607      2.00000
     10     -38.0607      2.00000
     11     -38.0607      2.00000
     12     -38.0607      2.00000
     13      -8.0580      2.00000
     14      -8.0580      2.00000
     15      -8.0580      2.00000
     16      -8.0580      2.00000
     17      -1.0929      2.00000
     18      -1.0929      2.00000
     19      -1.0929      2.00000
     20      -1.0929      2.00000
     21       1.9208      2.00000
     22       1.9208      2.00000
     23       1.9208      2.00000
     24       1.9208      2.00000
     25       2.6573      2.00000
     26       2.6573      2.00000
     27       2.6573      2.00000
     28       2.6573      2.00000
     29       8.4075      0.00000
     30       8.4075      0.00000
     31       8.4075      0.00000
     32       8.4075      0.00000
     33       9.6008      0.00000
     34       9.6008      0.00000
     35       9.6008      0.00000
     36       9.6008      0.00000

 k-point    10 :       0.5000    0.5000    0.5000
  band No.  band energies     occupation 
      1     -38.0660      2.00000
      2     -38.0660      2.00000
      3     -38.0660      2.00000
      4     -38.0660      2.00000
      5     -38.0606      2.00000
      6     -38.0606      2.00000
      7     -38.0606      2.00000
      8     -38.0606      2.00000
      9     -38.0606      2.00000
     10     -38.0606      2.00000
     11     -38.0606      2.00000
     12     -38.0606      2.00000
     13      -8.0209      2.00000
     14      -8.0209      2.00000
     15      -8.0209      2.00000
     16      -8.0209      2.00000
     17      -1.5086      2.00000
     18      -1.5086      2.00000
     19      -1.5086      2.00000
     20      -1.5086      2.00000
     21       2.6771      2.00000
     22       2.6771      2.00000
     23       2.6771      2.00000
     24       2.6771      2.00000
     25       2.6771      2.00000
     26       2.6771      2.00000
     27       2.6771      2.00000
     28       2.6771      2.00000
     29       7.6112      0.00000
     30       7.6112      0.00000
     31       7.6112      0.00000
     32       7.6112      0.00000
     33      10.0462      0.00000
     34      10.0462      0.00000
     35      10.0462      0.00000
     36      10.0462      0.00000


--------------------------------------------------------------------------------------------------------


 soft charge-density along one line, spin component           1
         0         1         2         3         4         5         6         7         8         9
 total charge-density along one line
 
 pseudopotential strength for first ion, spin component:           1
-49.460   0.000   0.000   6.110   0.000   0.000   0.000   0.000
  0.000 -49.460   0.000   0.000   6.110   0.000   0.000   0.000
  0.000   0.000 -49.460   0.000   0.000   6.110   0.000   0.000
  6.110   0.000   0.000   4.589   0.000   0.000   0.000   0.000
  0.000   6.110   0.000   0.000   4.589   0.000   0.000   0.000
  0.000   0.000   6.110   0.000   0.000   4.589   0.000   0.000
  0.000   0.000   0.000   0.000   0.000   0.000   2.967 -10.891
  0.000   0.000   0.000   0.000   0.000   0.000 -10.891  45.344
  0.000   0.000   0.000   0.000   0.000   0.000   0.000   0.000
  0.000   0.000   0.000   0.000   0.000   0.000   0.000   0.000
  0.000   0.000   0.000   0.000   0.000   0.000   0.000   0.000
  0.000   0.000   0.000   0.000   0.000   0.000   0.000   0.000
  0.000   0.000   0.000   0.000   0.000   0.000   0.000   0.000
 total augmentation occupancy for first ion, spin component:           1
  2.002   0.000   0.000  -0.001   0.000   0.000   0.000   0.000   0.000   0.000   0.000   0.000   0.000
  0.000   2.002   0.000   0.000  -0.001   0.000   0.000   0.000   0.000   0.000   0.000   0.000   0.000
  0.000   0.000   2.002   0.000   0.000  -0.001   0.000   0.000   0.000   0.000   0.000   0.000   0.000
 -0.001   0.000   0.000   0.055   0.000   0.000   0.000   0.000   0.000   0.000   0.000   0.000   0.000
  0.000  -0.001   0.000   0.000   0.055   0.000   0.000   0.000   0.000   0.000   0.000   0.000   0.000
  0.000   0.000  -0.001   0.000   0.000   0.055   0.000   0.000   0.000   0.000   0.000   0.000   0.000
  0.000   0.000   0.000   0.000   0.000   0.000   0.776   0.010   0.000   0.000   0.000   0.000   0.000
  0.000   0.000   0.000   0.000   0.000   0.000   0.010   0.000   0.000   0.000   0.000   0.000   0.000
  0.000   0.000   0.000   0.000   0.000   0.000   0.000   0.000   0.005   0.000   0.000   0.000   0.000
  0.000   0.000   0.000   0.000   0.000   0.000   0.000   0.000   0.000   0.005   0.000   0.000   0.000
  0.000   0.000   0.000   0.000   0.000   0.000   0.000   0.000   0.000   0.000   0.026   0.000   0.000
  0.000   0.000   0.000   0.000   0.000   0.000   0.000   0.000   0.000   0.000   0.000   0.005   0.000
  0.000   0.000   0.000   0.000   0.000   0.000   0.000   0.000   0.000   0.000   0.000   0.000   0.026


------------------------ aborting loop because EDIFF is reached ----------------------------------------


    CHARGE:  cpu time    0.06: real time    0.06
    FORLOC:  cpu time    0.00: real time    0.00
    FORNL :  cpu time    0.21: real time    0.21
    STRESS:  cpu time    0.62: real time    0.62
    FORCOR:  cpu time    0.02: real time    0.02
    FORHAR:  cpu time    0.00: real time    0.01
    MIXING:  cpu time    0.00: real time    0.00
    OFIELD:  cpu time    0.00: real time    0.00

  FORCE on cell =-STRESS in cart. coord.  units (eV):
  Direction    XX          YY          ZZ          XY          YZ          ZX
  --------------------------------------------------------------------------------------
  Alpha Z   146.80348   146.80348   146.80348
  Ewald   -1029.82247 -1029.82247 -1029.82247     0.00000     0.00000     0.00000
  Hartree   390.78595   390.78595   390.78595     0.00000     0.00000     0.00000
  E(xc)    -264.37685  -264.37685  -264.37685     0.00000     0.00000     0.00000
  Local     -19.39538   -19.39538   -19.39538     0.00000     0.00000     0.00000
  n-local    35.33782    36.67529    35.13554    -1.28774    -1.17122    -0.48644
  augment    32.71496    32.71496    32.71493     0.00000    -0.00001    -0.00001
  Kinetic   696.99812   707.98912   710.02211    -2.78280    -2.71782    -1.08962
  Fock        0.00000     0.00000     0.00000     0.00000     0.00000     0.00000
  -------------------------------------------------------------------------------------
  Total      -2.57098    -2.57098    -2.57098     0.00000     0.00000     0.00000
  in kB     -28.48018   -28.48018   -28.48018     0.00000     0.00000     0.00000
  external pressure =      -28.48 kB  Pullay stress =        0.00 kB


 VOLUME and BASIS-vectors are now :
 -----------------------------------------------------------------------------
  energy-cutoff  :      525.11
  volume of cell :      144.63
      direct lattice vectors                 reciprocal lattice vectors
     5.249151344  0.000000000  0.000000000     0.190506986  0.000000000  0.000000000
     0.000000000  5.249151344  0.000000000     0.000000000  0.190506986  0.000000000
     0.000000000  0.000000000  5.249151344     0.000000000  0.000000000  0.190506986

  length of vectors
     5.249151344  5.249151344  5.249151344     0.190506986  0.190506986  0.190506986


 FORCES acting on ions
    electron-ion (+dipol)            ewald-force                    non-local-force                 convergence-correction
 -----------------------------------------------------------------------------------------------
   -.208E-13 -.172E-13 -.172E-13   -.631E-14 -.516E-14 -.559E-14   0.323E-25 0.178E-25 -.646E-26   -.841E-13 -.911E-13 -.772E-13
   -.210E-13 -.426E-13 -.492E-13   -.635E-14 -.367E-14 -.976E-15   -.355E-25 0.178E-25 0.323E-26   -.827E-13 0.537E-13 0.597E-13
   -.481E-13 -.176E-13 -.496E-12   0.564E-15 -.544E-14 -.956E-15   0.113E-25 0.000E+00 -.162E-25   0.955E-14 -.788E-13 0.595E-13
   -.458E-13 0.160E-11 -.278E-11   0.530E-15 -.396E-14 -.625E-14   0.194E-25 0.646E-26 0.129E-25   0.532E-14 0.666E-13 -.794E-13
   0.666E-13 0.382E-14 -.827E-13   0.437E-14 0.286E-14 0.190E-14   -.517E-25 0.355E-25 -.517E-25   0.237E-13 -.527E-13 -.481E-13
   0.654E-13 0.751E-12 0.656E-12   0.426E-14 0.728E-14 0.500E-14   0.129E-25 -.129E-25 -.517E-25   0.243E-13 0.387E-13 0.419E-13
   0.191E-13 0.146E-13 0.629E-13   0.122E-14 0.224E-14 0.500E-14   -.711E-25 0.258E-25 -.103E-24   -.470E-13 -.506E-13 0.407E-13
   0.191E-13 0.619E-13 0.230E-13   0.111E-14 0.666E-14 0.662E-15   0.517E-25 -.258E-25 0.000E+00   -.485E-13 0.414E-13 -.494E-13
 -----------------------------------------------------------------------------------------------
   0.344E-13 0.236E-11 -.269E-11   -.608E-15 0.796E-15 -.121E-14   -.307E-25 0.646E-25 -.213E-24   -.199E-12 -.730E-13 -.523E-13
 
 
 POSITION                                       TOTAL-FORCE (eV/Angst)
 -----------------------------------------------------------------------------------
      0.00000      0.00000      0.00000         0.000000      0.000000      0.000000
      0.00000      2.62458      2.62458         0.000000      0.000000      0.000000
      2.62458      0.00000      2.62458         0.000000      0.000000      0.000000
      2.62458      2.62458      0.00000         0.000000      0.000000      0.000000
      2.62458      0.00000      0.00000         0.000000      0.000000      0.000000
      2.62458      2.62458      2.62458         0.000000      0.000000      0.000000
      0.00000      0.00000      2.62458         0.000000      0.000000      0.000000
      0.00000      2.62458      0.00000         0.000000      0.000000      0.000000
 -----------------------------------------------------------------------------------
    total drift:                                0.000000      0.000000      0.000000


--------------------------------------------------------------------------------------------------------



  FREE ENERGIE OF THE ION-ELECTRON SYSTEM (eV)
  ---------------------------------------------------
  free  energy   TOTEN  =       -36.18376930 eV

  energy  without entropy=      -36.18376930  energy(sigma->0) =      -36.18376930
 


--------------------------------------------------------------------------------------------------------


    POTLOK:  cpu time    0.05: real time    0.05


--------------------------------------------------------------------------------------------------------




--------------------------------------------------------------------------------------------------------


  
 reached required accuracy - stopping structural energy minimisation
     LOOP+:  cpu time    6.66: real time    6.71
    4ORBIT:  cpu time    0.00: real time    0.00

 total amount of memory used by VASP on root node    39084. kBytes
========================================================================

   base      :      30000. kBytes
   nonl-proj :       1757. kBytes
   fftplans  :       4155. kBytes
   grid      :       1976. kBytes
   one-center:         16. kBytes
   wavefun   :       1180. kBytes
 
  
  
 General timing and accounting informations for this job:
 ========================================================
  
                  Total CPU time used (sec):        7.887
                            User time (sec):        6.847
                          System time (sec):        1.040
                         Elapsed time (sec):        8.159
  
                   Maximum memory used (kb):       71580.
                   Average memory used (kb):           0.
  
                          Minor page faults:       291136
                          Major page faults:            0
                 Voluntary context switches:         2002
