  64  64   0   0
  0.1738377E+02  0.1036195E-08  0.1036195E-08  0.1036195E-08  0.5000000E-15
  1.000000000000000E-004
  CAR 
 unknown system                          
     12.83562451    -40.05362190  301      3.71222950      1.00000000
    -40.054  0.0000E+00  0.0000E+00
    -39.877  0.0000E+00  0.0000E+00
    -39.701  0.0000E+00  0.0000E+00
    -39.525  0.0000E+00  0.0000E+00
    -39.348  0.0000E+00  0.0000E+00
    -39.172  0.0000E+00  0.0000E+00
    -38.996  0.0000E+00  0.0000E+00
    -38.820  0.0000E+00  0.0000E+00
    -38.643  0.0000E+00  0.0000E+00
    -38.467  0.0000E+00  0.0000E+00
    -38.291  0.0000E+00  0.0000E+00
    -38.114  0.0000E+00  0.0000E+00
    -37.938  0.0000E+00  0.0000E+00
    -37.762  0.0000E+00  0.0000E+00
    -37.585  0.1089E+04  0.1920E+03
    -37.409  0.0000E+00  0.1920E+03
    -37.233  0.0000E+00  0.1920E+03
    -37.057  0.0000E+00  0.1920E+03
    -36.880  0.0000E+00  0.1920E+03
    -36.704  0.0000E+00  0.1920E+03
    -36.528  0.0000E+00  0.1920E+03
    -36.351  0.0000E+00  0.1920E+03
    -36.175  0.0000E+00  0.1920E+03
    -35.999  0.0000E+00  0.1920E+03
    -35.822  0.0000E+00  0.1920E+03
    -35.646  0.0000E+00  0.1920E+03
    -35.470  0.0000E+00  0.1920E+03
    -35.294  0.0000E+00  0.1920E+03
    -35.117  0.0000E+00  0.1920E+03
    -34.941  0.0000E+00  0.1920E+03
    -34.765  0.0000E+00  0.1920E+03
    -34.588  0.0000E+00  0.1920E+03
    -34.412  0.0000E+00  0.1920E+03
    -34.236  0.0000E+00  0.1920E+03
    -34.060  0.0000E+00  0.1920E+03
    -33.883  0.0000E+00  0.1920E+03
    -33.707  0.0000E+00  0.1920E+03
    -33.531  0.0000E+00  0.1920E+03
    -33.354  0.0000E+00  0.1920E+03
    -33.178  0.0000E+00  0.1920E+03
    -33.002  0.0000E+00  0.1920E+03
    -32.825  0.0000E+00  0.1920E+03
    -32.649  0.0000E+00  0.1920E+03
    -32.473  0.0000E+00  0.1920E+03
    -32.297  0.0000E+00  0.1920E+03
    -32.120  0.0000E+00  0.1920E+03
    -31.944  0.0000E+00  0.1920E+03
    -31.768  0.0000E+00  0.1920E+03
    -31.591  0.0000E+00  0.1920E+03
    -31.415  0.0000E+00  0.1920E+03
    -31.239  0.0000E+00  0.1920E+03
    -31.062  0.0000E+00  0.1920E+03
    -30.886  0.0000E+00  0.1920E+03
    -30.710  0.0000E+00  0.1920E+03
    -30.534  0.0000E+00  0.1920E+03
    -30.357  0.0000E+00  0.1920E+03
    -30.181  0.0000E+00  0.1920E+03
    -30.005  0.0000E+00  0.1920E+03
    -29.828  0.0000E+00  0.1920E+03
    -29.652  0.0000E+00  0.1920E+03
    -29.476  0.0000E+00  0.1920E+03
    -29.299  0.0000E+00  0.1920E+03
    -29.123  0.0000E+00  0.1920E+03
    -28.947  0.0000E+00  0.1920E+03
    -28.771  0.0000E+00  0.1920E+03
    -28.594  0.0000E+00  0.1920E+03
    -28.418  0.0000E+00  0.1920E+03
    -28.242  0.0000E+00  0.1920E+03
    -28.065  0.0000E+00  0.1920E+03
    -27.889  0.0000E+00  0.1920E+03
    -27.713  0.0000E+00  0.1920E+03
    -27.537  0.0000E+00  0.1920E+03
    -27.360  0.0000E+00  0.1920E+03
    -27.184  0.0000E+00  0.1920E+03
    -27.008  0.0000E+00  0.1920E+03
    -26.831  0.0000E+00  0.1920E+03
    -26.655  0.0000E+00  0.1920E+03
    -26.479  0.0000E+00  0.1920E+03
    -26.302  0.0000E+00  0.1920E+03
    -26.126  0.0000E+00  0.1920E+03
    -25.950  0.0000E+00  0.1920E+03
    -25.774  0.0000E+00  0.1920E+03
    -25.597  0.0000E+00  0.1920E+03
    -25.421  0.0000E+00  0.1920E+03
    -25.245  0.0000E+00  0.1920E+03
    -25.068  0.0000E+00  0.1920E+03
    -24.892  0.0000E+00  0.1920E+03
    -24.716  0.0000E+00  0.1920E+03
    -24.539  0.0000E+00  0.1920E+03
    -24.363  0.0000E+00  0.1920E+03
    -24.187  0.0000E+00  0.1920E+03
    -24.011  0.0000E+00  0.1920E+03
    -23.834  0.0000E+00  0.1920E+03
    -23.658  0.0000E+00  0.1920E+03
    -23.482  0.0000E+00  0.1920E+03
    -23.305  0.0000E+00  0.1920E+03
    -23.129  0.0000E+00  0.1920E+03
    -22.953  0.0000E+00  0.1920E+03
    -22.776  0.0000E+00  0.1920E+03
    -22.600  0.0000E+00  0.1920E+03
    -22.424  0.0000E+00  0.1920E+03
    -22.248  0.0000E+00  0.1920E+03
    -22.071  0.0000E+00  0.1920E+03
    -21.895  0.0000E+00  0.1920E+03
    -21.719  0.0000E+00  0.1920E+03
    -21.542  0.0000E+00  0.1920E+03
    -21.366  0.0000E+00  0.1920E+03
    -21.190  0.0000E+00  0.1920E+03
    -21.013  0.0000E+00  0.1920E+03
    -20.837  0.0000E+00  0.1920E+03
    -20.661  0.0000E+00  0.1920E+03
    -20.485  0.0000E+00  0.1920E+03
    -20.308  0.0000E+00  0.1920E+03
    -20.132  0.0000E+00  0.1920E+03
    -19.956  0.0000E+00  0.1920E+03
    -19.779  0.0000E+00  0.1920E+03
    -19.603  0.0000E+00  0.1920E+03
    -19.427  0.0000E+00  0.1920E+03
    -19.251  0.0000E+00  0.1920E+03
    -19.074  0.0000E+00  0.1920E+03
    -18.898  0.0000E+00  0.1920E+03
    -18.722  0.0000E+00  0.1920E+03
    -18.545  0.0000E+00  0.1920E+03
    -18.369  0.0000E+00  0.1920E+03
    -18.193  0.0000E+00  0.1920E+03
    -18.016  0.0000E+00  0.1920E+03
    -17.840  0.0000E+00  0.1920E+03
    -17.664  0.0000E+00  0.1920E+03
    -17.488  0.0000E+00  0.1920E+03
    -17.311  0.0000E+00  0.1920E+03
    -17.135  0.0000E+00  0.1920E+03
    -16.959  0.0000E+00  0.1920E+03
    -16.782  0.0000E+00  0.1920E+03
    -16.606  0.0000E+00  0.1920E+03
    -16.430  0.0000E+00  0.1920E+03
    -16.253  0.0000E+00  0.1920E+03
    -16.077  0.0000E+00  0.1920E+03
    -15.901  0.0000E+00  0.1920E+03
    -15.725  0.0000E+00  0.1920E+03
    -15.548  0.0000E+00  0.1920E+03
    -15.372  0.0000E+00  0.1920E+03
    -15.196  0.0000E+00  0.1920E+03
    -15.019  0.0000E+00  0.1920E+03
    -14.843  0.0000E+00  0.1920E+03
    -14.667  0.0000E+00  0.1920E+03
    -14.490  0.0000E+00  0.1920E+03
    -14.314  0.0000E+00  0.1920E+03
    -14.138  0.0000E+00  0.1920E+03
    -13.962  0.0000E+00  0.1920E+03
    -13.785  0.0000E+00  0.1920E+03
    -13.609  0.0000E+00  0.1920E+03
    -13.433  0.0000E+00  0.1920E+03
    -13.256  0.0000E+00  0.1920E+03
    -13.080  0.0000E+00  0.1920E+03
    -12.904  0.0000E+00  0.1920E+03
    -12.728  0.0000E+00  0.1920E+03
    -12.551  0.0000E+00  0.1920E+03
    -12.375  0.0000E+00  0.1920E+03
    -12.199  0.0000E+00  0.1920E+03
    -12.022  0.0000E+00  0.1920E+03
    -11.846  0.0000E+00  0.1920E+03
    -11.670  0.0000E+00  0.1920E+03
    -11.493  0.0000E+00  0.1920E+03
    -11.317  0.0000E+00  0.1920E+03
    -11.141  0.0000E+00  0.1920E+03
    -10.965  0.0000E+00  0.1920E+03
    -10.788  0.0000E+00  0.1920E+03
    -10.612  0.0000E+00  0.1920E+03
    -10.436  0.0000E+00  0.1920E+03
    -10.259  0.0000E+00  0.1920E+03
    -10.083  0.0000E+00  0.1920E+03
     -9.907  0.0000E+00  0.1920E+03
     -9.730  0.0000E+00  0.1920E+03
     -9.554  0.0000E+00  0.1920E+03
     -9.378  0.0000E+00  0.1920E+03
     -9.202  0.4174E-04  0.1920E+03
     -9.025  0.0000E+00  0.1922E+03
     -8.849  0.0000E+00  0.1938E+03
     -8.673  0.0000E+00  0.1968E+03
     -8.496  0.0000E+00  0.1988E+03
     -8.320  0.0000E+00  0.2002E+03
     -8.144  0.1190E+01  0.2065E+03
     -7.967  0.0000E+00  0.2122E+03
     -7.791  0.3939E+02  0.2222E+03
     -7.615  0.6888E+02  0.2359E+03
     -7.439  0.8736E+01  0.2478E+03
     -7.262  0.0000E+00  0.2560E+03
     -7.086  0.0000E+00  0.2560E+03
     -6.910  0.0000E+00  0.2560E+03
     -6.733  0.0000E+00  0.2560E+03
     -6.557  0.0000E+00  0.2560E+03
     -6.381  0.0000E+00  0.2560E+03
     -6.205  0.0000E+00  0.2560E+03
     -6.028  0.0000E+00  0.2560E+03
     -5.852  0.0000E+00  0.2560E+03
     -5.676  0.0000E+00  0.2560E+03
     -5.499  0.0000E+00  0.2560E+03
     -5.323  0.0000E+00  0.2560E+03
     -5.147  0.0000E+00  0.2560E+03
     -4.970  0.0000E+00  0.2560E+03
     -4.794  0.0000E+00  0.2560E+03
     -4.618  0.0000E+00  0.2560E+03
     -4.442  0.0000E+00  0.2560E+03
     -4.265  0.0000E+00  0.2560E+03
     -4.089  0.0000E+00  0.2560E+03
     -3.913  0.0000E+00  0.2560E+03
     -3.736  0.0000E+00  0.2560E+03
     -3.560  0.0000E+00  0.2560E+03
     -3.384  0.0000E+00  0.2560E+03
     -3.207  0.0000E+00  0.2560E+03
     -3.031  0.0000E+00  0.2560E+03
     -2.855  0.0000E+00  0.2560E+03
     -2.679  0.0000E+00  0.2560E+03
     -2.502  0.0000E+00  0.2560E+03
     -2.326  0.0000E+00  0.2560E+03
     -2.150  0.0000E+00  0.2560E+03
     -1.973  0.0000E+00  0.2560E+03
     -1.797  0.0000E+00  0.2560E+03
     -1.621  0.0000E+00  0.2560E+03
     -1.444  0.0000E+00  0.2560E+03
     -1.268  0.0000E+00  0.2570E+03
     -1.092  0.0000E+00  0.2570E+03
     -0.916  0.3402E+02  0.2630E+03
     -0.739  0.6119E+00  0.2691E+03
     -0.563  0.2722E+02  0.2745E+03
     -0.387  0.0000E+00  0.2788E+03
     -0.210  0.1337E+03  0.3023E+03
     -0.034  0.0000E+00  0.3042E+03
      0.142  0.0000E+00  0.3042E+03
      0.319  0.3353E+02  0.3102E+03
      0.495  0.5231E+02  0.3195E+03
      0.671  0.4299E-05  0.3223E+03
      0.847  0.0000E+00  0.3242E+03
      1.024  0.8508E+01  0.3258E+03
      1.200  0.2552E+02  0.3302E+03
      1.376  0.5557E+02  0.3430E+03
      1.553  0.3403E+02  0.3543E+03
      1.729  0.0000E+00  0.3572E+03
      1.905  0.8508E+01  0.3588E+03
      2.081  0.5119E+02  0.3738E+03
      2.258  0.4821E+02  0.3888E+03
      2.434  0.3403E+02  0.4007E+03
      2.610  0.2553E+02  0.4053E+03
      2.787  0.3396E+02  0.4172E+03
      2.963  0.8187E+02  0.4352E+03
      3.139  0.0000E+00  0.4372E+03
      3.316  0.3971E+02  0.4442E+03
      3.492  0.1691E+02  0.4472E+03
      3.668  0.0000E+00  0.4480E+03
      3.844  0.0000E+00  0.4480E+03
      4.021  0.0000E+00  0.4480E+03
      4.197  0.0000E+00  0.4480E+03
      4.373  0.0000E+00  0.4480E+03
      4.550  0.0000E+00  0.4480E+03
      4.726  0.0000E+00  0.4480E+03
      4.902  0.0000E+00  0.4480E+03
      5.079  0.0000E+00  0.4480E+03
      5.255  0.0000E+00  0.4480E+03
      5.431  0.0000E+00  0.4480E+03
      5.607  0.0000E+00  0.4480E+03
      5.784  0.0000E+00  0.4480E+03
      5.960  0.0000E+00  0.4480E+03
      6.136  0.0000E+00  0.4480E+03
      6.313  0.3006E+00  0.4481E+03
      6.489  0.0000E+00  0.4488E+03
      6.665  0.0000E+00  0.4488E+03
      6.842  0.0000E+00  0.4488E+03
      7.018  0.8508E+01  0.4502E+03
      7.194  0.0000E+00  0.4502E+03
      7.370  0.1514E+02  0.4532E+03
      7.547  0.0000E+00  0.4565E+03
      7.723  0.0000E+00  0.4565E+03
      7.899  0.3212E+01  0.4578E+03
      8.076  0.5672E+01  0.4703E+03
      8.252  0.0000E+00  0.4718E+03
      8.428  0.8200E-01  0.4718E+03
      8.604  0.8508E+01  0.4767E+03
      8.781  0.2100E+02  0.4805E+03
      8.957  0.3208E+02  0.5019E+03
      9.133  0.3076E+02  0.5092E+03
      9.310  0.0000E+00  0.5188E+03
      9.486  0.0000E+00  0.5248E+03
      9.662  0.1702E+02  0.5278E+03
      9.839  0.0000E+00  0.5278E+03
     10.015  0.2553E+02  0.5322E+03
     10.191  0.0000E+00  0.5322E+03
     10.367  0.0000E+00  0.5352E+03
     10.544  0.0000E+00  0.5360E+03
     10.720  0.0000E+00  0.5360E+03
     10.896  0.0000E+00  0.5360E+03
     11.073  0.0000E+00  0.5360E+03
     11.249  0.0000E+00  0.5360E+03
     11.425  0.0000E+00  0.5360E+03
     11.602  0.0000E+00  0.5360E+03
     11.778  0.0000E+00  0.5360E+03
     11.954  0.0000E+00  0.5360E+03
     12.130  0.0000E+00  0.5360E+03
     12.307  0.0000E+00  0.5360E+03
     12.483  0.0000E+00  0.5360E+03
     12.659  0.0000E+00  0.5360E+03
     12.836  0.0000E+00  0.5360E+03
