       N       E                     dE             d eps       ncg     rms          rms(c)
DAV:   1     0.429966741308E+04    0.42997E+04   -0.26677E+05  3888   0.166E+03
DAV:   2     0.100733415889E+03   -0.41989E+04   -0.40460E+04  3824   0.430E+02
DAV:   3    -0.282252379350E+03   -0.38299E+03   -0.37935E+03  3888   0.119E+02
DAV:   4    -0.300830606120E+03   -0.18578E+02   -0.18514E+02  3648   0.221E+01
DAV:   5    -0.301668578431E+03   -0.83797E+00   -0.83733E+00  4048   0.474E+00    0.247E+01
DAV:   6    -0.291179700185E+03    0.10489E+02   -0.21218E+01  3560   0.700E+00    0.179E+01
DAV:   7    -0.289912418366E+03    0.12673E+01   -0.79285E+00  3752   0.402E+00    0.896E+00
DAV:   8    -0.289835289101E+03    0.77129E-01   -0.70103E-01  3516   0.170E+00    0.234E+00
DAV:   9    -0.289830695310E+03    0.45938E-02   -0.25374E-02  3680   0.337E-01    0.473E-01
DAV:  10    -0.289831158583E+03   -0.46327E-03   -0.58429E-03  3720   0.130E-01    0.220E-01
DAV:  11    -0.289830912818E+03    0.24576E-03   -0.94348E-04  3552   0.612E-02    0.217E-02
DAV:  12    -0.289830914343E+03   -0.15248E-05   -0.30903E-05  3764   0.111E-02    0.238E-02
DAV:  13    -0.289830917441E+03   -0.30986E-05   -0.50046E-06  3616   0.483E-03    0.290E-03
DAV:  14    -0.289830917175E+03    0.26634E-06   -0.16318E-06  3616   0.254E-03    0.216E-03
DAV:  15    -0.289830917065E+03    0.11002E-06   -0.56487E-08  3016   0.493E-04    0.234E-03
DAV:  16    -0.289830917099E+03   -0.34022E-07   -0.32662E-08  2748   0.297E-04    0.925E-04
DAV:  17    -0.289830916995E+03    0.10366E-06   -0.89124E-09  2000   0.292E-04    0.105E-03
DAV:  18    -0.289830917034E+03   -0.38868E-07   -0.48262E-09  1976   0.119E-04    0.685E-04
DAV:  19    -0.289830917038E+03   -0.36234E-08   -0.10710E-09  1976   0.620E-05
   1 F= -.28983092E+03 E0= -.28983092E+03  d E =-.122677E-69
