 vasp.5.3.5 31Mar14 (build Nov 07 2014 11:36:17) complex                        
  
 executed on             LinuxIFC date 2015.10.15  02:20:21
 running on   20 total cores
 distrk:  each k-point on   20 cores,    1 groups
 distr:  one band on NCORES_PER_BAND=   5 cores,    4 groups


--------------------------------------------------------------------------------------------------------


 INCAR:
 POTCAR:    PAW_PBE Mg_pv 13Apr2007               
 POTCAR:    PAW_PBE S 06Sep2000                   
 POTCAR:    PAW_PBE Mg_pv 13Apr2007               
   VRHFIN =Mg: p6s2                                                             
   LEXCH  = PE                                                                  
   EATOM  =  1056.7344 eV,   77.6678 Ry                                         
                                                                                
   TITEL  = PAW_PBE Mg_pv 13Apr2007                                             
   LULTRA =        F    use ultrasoft PP ?                                      
   IUNSCR =        1    unscreen: 0-lin 1-nonlin 2-no                           
   RPACOR =    1.500    partial core radius                                     
   POMASS =   24.305; ZVAL   =    8.000    mass and valenz                      
   RCORE  =    2.000    outmost cutoff radius                                   
   RWIGS  =    2.000; RWIGS  =    1.058    wigner-seitz radius (au A)           
   ENMAX  =  403.929; ENMIN  =  302.947 eV                                      
   RCLOC  =    1.506    cutoff for local pot                                    
   LCOR   =        T    correct aug charges                                     
   LPAW   =        T    paw PP                                                  
   EAUG   =  758.780                                                            
   DEXC   =    0.000                                                            
   RMAX   =    2.045    core radius for proj-oper                               
   RAUG   =    1.300    factor for augmentation sphere                          
   RDEP   =    2.025    radius for radial grids                                 
   RDEPT  =    1.557    core radius for aug-charge                              
                                                                                
   Atomic configuration                                                         
    5 entries                                                                   
     n  l   j            E        occ.                                          
     1  0  0.50     -1259.6230   2.0000                                         
     2  0  0.50       -79.8442   2.0000                                         
     2  1  1.50       -46.6121   6.0000                                         
     3  0  0.50        -4.7055   2.0000                                         
     3  2  1.50        -1.3606   0.0000                                         
   Description                                                                  
     l       E           TYP  RCUT    TYP  RCUT                                 
     1    -46.6121073     23  1.600                                             
     1      2.7211652     23  1.600                                             
     0     -4.7054661     23  2.000                                             
     0     61.2262170     23  2.000                                             
     2     -1.3605826     23  2.000                                             
  local pseudopotential read in
  partial core-charges read in
  partial kinetic energy density read in
  atomic valenz-charges read in
  non local Contribution for L=           1  read in
    real space projection operators read in
  non local Contribution for L=           1  read in
    real space projection operators read in
  non local Contribution for L=           0  read in
    real space projection operators read in
  non local Contribution for L=           0  read in
    real space projection operators read in
  non local Contribution for L=           2  read in
    real space projection operators read in
    PAW grid and wavefunctions read in
 
   number of l-projection  operators is LMAX  =           5
   number of lm-projection operators is LMMAX =          13
 
 POTCAR:    PAW_PBE S 06Sep2000                   
   VRHFIN =S : s2p4                                                             
   LEXCH  = PE                                                                  
   EATOM  =   276.8230 eV,   20.3459 Ry                                         
                                                                                
   TITEL  = PAW_PBE S 06Sep2000                                                 
   LULTRA =        F    use ultrasoft PP ?                                      
   IUNSCR =        1    unscreen: 0-lin 1-nonlin 2-no                           
   RPACOR =    1.500    partial core radius                                     
   POMASS =   32.066; ZVAL   =    6.000    mass and valenz                      
   RCORE  =    1.900    outmost cutoff radius                                   
   RWIGS  =    2.200; RWIGS  =    1.164    wigner-seitz radius (au A)           
   ENMAX  =  258.689; ENMIN  =  194.016 eV                                      
   ICORE  =        2    local potential                                         
   LCOR   =        T    correct aug charges                                     
   LPAW   =        T    paw PP                                                  
   EAUG   =  335.092                                                            
   DEXC   =    0.000                                                            
   RMAX   =    1.942    core radius for proj-oper                               
   RAUG   =    1.300    factor for augmentation sphere                          
   RDEP   =    1.954    radius for radial grids                                 
   RDEPT  =    1.744    core radius for aug-charge                              
                                                                                
   Atomic configuration                                                         
    6 entries                                                                   
     n  l   j            E        occ.                                          
     1  0  0.50     -2405.8406   2.0000                                         
     2  0  0.50      -211.7007   2.0000                                         
     2  1  1.50      -156.4958   6.0000                                         
     3  0  0.50       -17.2562   2.0000                                         
     3  1  0.50        -7.0085   4.0000                                         
     3  2  1.50        -6.8029   0.0000                                         
   Description                                                                  
     l       E           TYP  RCUT    TYP  RCUT                                 
     0    -17.2561641     23  1.900                                             
     0    -15.8743224     23  1.900                                             
     1     -7.0085400     23  1.900                                             
     1     -2.7779785     23  1.900                                             
     2     -6.8029130     23  1.900                                             
  local pseudopotential read in
  partial core-charges read in
  partial kinetic energy density read in
  atomic valenz-charges read in
  non local Contribution for L=           0  read in
    real space projection operators read in
  non local Contribution for L=           0  read in
    real space projection operators read in
  non local Contribution for L=           1  read in
    real space projection operators read in
  non local Contribution for L=           1  read in
    real space projection operators read in
    PAW grid and wavefunctions read in
 
   number of l-projection  operators is LMAX  =           4
   number of lm-projection operators is LMMAX =           8
 

 ----------------------------------------------------------------------------- 
|                                                                             |
|  ADVICE TO THIS USER RUNNING 'VASP/VAMP'   (HEAR YOUR MASTER'S VOICE ...):  |
|                                                                             |
|      You have a (more or less) 'large supercell' and for larger cells       |
|      it might be more efficient to use real space projection opertators     |
|      So try LREAL= Auto  in the INCAR   file.                               |
|      Mind: At the moment your POTCAR file does not contain real space       |
|       projectors, and has to be modified,  BUT if you                       |
|      want to do an extremely  accurate calculation you might also keep the  |
|      reciprocal projection scheme          (i.e. LREAL=.FALSE.)             |
|                                                                             |
 ----------------------------------------------------------------------------- 


 ----------------------------------------------------------------------------- 
|                                                                             |
|  ADVICE TO THIS USER RUNNING 'VASP/VAMP'   (HEAR YOUR MASTER'S VOICE ...):  |
|                                                                             |
|      You enforced a specific xc-type in the INCAR file,                     |
|      a different type was found on the POTCAR file                          |
|          I HOPE YOU KNOW, WHAT YOU ARE  DOING                               |
|                                                                             |
 ----------------------------------------------------------------------------- 

  PAW_PBE Mg_pv 13Apr2007               :
 energy of atom  1       EATOM=-1056.7344
 kinetic energy error for atom=    0.0336 (will be added to EATOM!!)
  PAW_PBE S 06Sep2000                   :
 energy of atom  2       EATOM= -276.8230
 kinetic energy error for atom=    0.0015 (will be added to EATOM!!)
 
 
 POSCAR:  Mg S                                   
  positions in direct lattice
  No initial velocities read in
 exchange correlation table for  LEXCH =       14
   RHO(1)=    0.500       N(1)  =     2000
   RHO(2)=  100.500       N(2)  =     4000
 


--------------------------------------------------------------------------------------------------------


 ion  position               nearest neighbor table
   1  0.000  0.000  0.000-  34 2.59  49 2.59  53 2.59  57 2.59  59 2.59  33 2.60
   2  0.500  0.000  0.000-  33 2.58  34 2.59  50 2.59  54 2.59  58 2.59  60 2.59
   3  0.000  0.500  0.000-  35 2.59  36 2.59  51 2.59  55 2.59  57 2.59  59 2.59
   4  0.500  0.500  0.000-  35 2.59  36 2.59  52 2.59  56 2.59  58 2.59  60 2.59
   5  0.000  0.000  0.500-  37 2.59  38 2.59  49 2.59  53 2.59  61 2.59  63 2.59
   6  0.500  0.000  0.500-  37 2.59  38 2.59  50 2.59  54 2.59  62 2.59  64 2.59
   7  0.000  0.500  0.500-  39 2.59  40 2.59  51 2.59  55 2.59  61 2.59  63 2.59
   8  0.500  0.500  0.500-  39 2.59  40 2.59  52 2.59  56 2.59  62 2.59  64 2.59
   9  0.000  0.250  0.250-  41 2.59  42 2.59  49 2.59  51 2.59  57 2.59  61 2.59
  10  0.500  0.250  0.250-  41 2.59  42 2.59  50 2.59  52 2.59  58 2.59  62 2.59
  11  0.000  0.750  0.250-  43 2.59  44 2.59  49 2.59  51 2.59  59 2.59  63 2.59
  12  0.500  0.750  0.250-  43 2.59  44 2.59  50 2.59  52 2.59  60 2.59  64 2.59
  13  0.000  0.250  0.750-  45 2.59  46 2.59  53 2.59  55 2.59  57 2.59  61 2.59
  14  0.500  0.250  0.750-  45 2.59  46 2.59  54 2.59  56 2.59  58 2.59  62 2.59
  15  0.000  0.750  0.750-  47 2.59  48 2.59  53 2.59  55 2.59  59 2.59  63 2.59
  16  0.500  0.750  0.750-  47 2.59  48 2.59  54 2.59  56 2.59  60 2.59  64 2.59
  17  0.250  0.000  0.250-  37 2.59  41 2.59  43 2.59  49 2.59  50 2.59  33 2.59
  18  0.750  0.000  0.250-  34 2.59  38 2.59  42 2.59  44 2.59  49 2.59  50 2.59
  19  0.250  0.500  0.250-  35 2.59  39 2.59  41 2.59  43 2.59  51 2.59  52 2.59
  20  0.750  0.500  0.250-  36 2.59  40 2.59  42 2.59  44 2.59  51 2.59  52 2.59
  21  0.250  0.000  0.750-  37 2.59  45 2.59  47 2.59  53 2.59  54 2.59  33 2.59
  22  0.750  0.000  0.750-  34 2.59  38 2.59  46 2.59  48 2.59  53 2.59  54 2.59
  23  0.250  0.500  0.750-  35 2.59  39 2.59  45 2.59  47 2.59  55 2.59  56 2.59
  24  0.750  0.500  0.750-  36 2.59  40 2.59  46 2.59  48 2.59  55 2.59  56 2.59
  25  0.250  0.250  0.000-  35 2.59  41 2.59  45 2.59  57 2.59  58 2.59  33 2.59
  26  0.750  0.250  0.000-  34 2.59  36 2.59  42 2.59  46 2.59  57 2.59  58 2.59
  27  0.250  0.750  0.000-  35 2.59  43 2.59  47 2.59  59 2.59  60 2.59  33 2.59
  28  0.750  0.750  0.000-  34 2.59  36 2.59  44 2.59  48 2.59  59 2.59  60 2.59
  29  0.250  0.250  0.500-  37 2.59  39 2.59  41 2.59  45 2.59  61 2.59  62 2.59
  30  0.750  0.250  0.500-  38 2.59  40 2.59  42 2.59  46 2.59  61 2.59  62 2.59
  31  0.250  0.750  0.500-  37 2.59  39 2.59  43 2.59  47 2.59  63 2.59  64 2.59
  32  0.750  0.750  0.500-  38 2.59  40 2.59  44 2.59  48 2.59  63 2.59  64 2.59
  33  0.251  0.000  0.000-   2 2.58  17 2.59  21 2.59  25 2.59  27 2.59   1 2.60
  34  0.750  0.000  0.000-   1 2.59   2 2.59  18 2.59  22 2.59  26 2.59  28 2.59
  35  0.250  0.500  0.000-   3 2.59   4 2.59  19 2.59  23 2.59  25 2.59  27 2.59
  36  0.750  0.500  0.000-   3 2.59   4 2.59  20 2.59  24 2.59  26 2.59  28 2.59
  37  0.250  0.000  0.500-   5 2.59   6 2.59  17 2.59  21 2.59  29 2.59  31 2.59
  38  0.750  0.000  0.500-   5 2.59   6 2.59  18 2.59  22 2.59  30 2.59  32 2.59
  39  0.250  0.500  0.500-   7 2.59   8 2.59  19 2.59  23 2.59  29 2.59  31 2.59
  40  0.750  0.500  0.500-   7 2.59   8 2.59  20 2.59  24 2.59  30 2.59  32 2.59
  41  0.250  0.250  0.250-   9 2.59  10 2.59  17 2.59  19 2.59  25 2.59  29 2.59
  42  0.750  0.250  0.250-   9 2.59  10 2.59  18 2.59  20 2.59  26 2.59  30 2.59
  43  0.250  0.750  0.250-  11 2.59  12 2.59  17 2.59  19 2.59  27 2.59  31 2.59
  44  0.750  0.750  0.250-  11 2.59  12 2.59  18 2.59  20 2.59  28 2.59  32 2.59
  45  0.250  0.250  0.750-  13 2.59  14 2.59  21 2.59  23 2.59  25 2.59  29 2.59
  46  0.750  0.250  0.750-  13 2.59  14 2.59  22 2.59  24 2.59  26 2.59  30 2.59
  47  0.250  0.750  0.750-  15 2.59  16 2.59  21 2.59  23 2.59  27 2.59  31 2.59
  48  0.750  0.750  0.750-  15 2.59  16 2.59  22 2.59  24 2.59  28 2.59  32 2.59
  49  0.000  0.000  0.250-   1 2.59   5 2.59   9 2.59  11 2.59  17 2.59  18 2.59
  50  0.500  0.000  0.250-   2 2.59   6 2.59  10 2.59  12 2.59  17 2.59  18 2.59
  51  0.000  0.500  0.250-   3 2.59   7 2.59   9 2.59  11 2.59  19 2.59  20 2.59
  52  0.500  0.500  0.250-   4 2.59   8 2.59  10 2.59  12 2.59  19 2.59  20 2.59
  53  0.000  0.000  0.750-   1 2.59   5 2.59  13 2.59  15 2.59  21 2.59  22 2.59
  54  0.500  0.000  0.750-   2 2.59   6 2.59  14 2.59  16 2.59  21 2.59  22 2.59
  55  0.000  0.500  0.750-   3 2.59   7 2.59  13 2.59  15 2.59  23 2.59  24 2.59
  56  0.500  0.500  0.750-   4 2.59   8 2.59  14 2.59  16 2.59  23 2.59  24 2.59
  57  0.000  0.250  0.000-   1 2.59   3 2.59   9 2.59  13 2.59  25 2.59  26 2.59
  58  0.500  0.250  0.000-   2 2.59   4 2.59  10 2.59  14 2.59  25 2.59  26 2.59
  59  0.000  0.750  0.000-   1 2.59   3 2.59  11 2.59  15 2.59  27 2.59  28 2.59
  60  0.500  0.750  0.000-   2 2.59   4 2.59  12 2.59  16 2.59  27 2.59  28 2.59
  61  0.000  0.250  0.500-   5 2.59   7 2.59   9 2.59  13 2.59  29 2.59  30 2.59
  62  0.500  0.250  0.500-   6 2.59   8 2.59  10 2.59  14 2.59  29 2.59  30 2.59
  63  0.000  0.750  0.500-   5 2.59   7 2.59  11 2.59  15 2.59  31 2.59  32 2.59
  64  0.500  0.750  0.500-   6 2.59   8 2.59  12 2.59  16 2.59  31 2.59  32 2.59
 
  LATTYP: Found a simple cubic cell.
 ALAT       =    10.3619456600
  
  Lattice vectors:
  
 A1 = (  10.3619456600,   0.0000000000,   0.0000000000)
 A2 = (   0.0000000000,  10.3619456600,   0.0000000000)
 A3 = (   0.0000000000,   0.0000000000,  10.3619456600)


Analysis of symmetry for initial positions (statically):
=====================================================================
 Subroutine PRICEL returns:
 Original cell was already a primitive cell.
 

 Routine SETGRP: Setting up the symmetry group for a 
 simple cubic supercell.


 Subroutine GETGRP returns: Found  8 space group operations
 (whereof  8 operations were pure point group operations)
 out of a pool of 48 trial point group operations.


The static configuration has the point symmetry C_4v.


Analysis of symmetry for dynamics (positions and initial velocities):
=====================================================================
 Subroutine PRICEL returns:
 Original cell was already a primitive cell.
 

 Routine SETGRP: Setting up the symmetry group for a 
 simple cubic supercell.


 Subroutine GETGRP returns: Found  8 space group operations
 (whereof  8 operations were pure point group operations)
 out of a pool of 48 trial point group operations.


The dynamic configuration has the point symmetry C_4v.
 
 
 KPOINTS: Automatic mesh                          

Automatic generation of k-mesh.
Space group operators:
 irot       det(A)        alpha          n_x          n_y          n_z        tau_x        tau_y        tau_z
    1     1.000000     0.000000     1.000000     0.000000     0.000000     0.000000     0.000000     0.000000
    2    -1.000000   180.000000     0.000000     0.707107     0.707107     0.000000     0.000000     0.000000
    3    -1.000000   180.000000     0.000000     0.000000     1.000000     0.000000     0.000000     0.000000
    4     1.000000    90.000000    -1.000000     0.000000     0.000000     0.000000     0.000000     0.000000
    5     1.000000   180.000000     1.000000     0.000000     0.000000     0.000000     0.000000     0.000000
    6     1.000000    90.000000     1.000000     0.000000     0.000000     0.000000     0.000000     0.000000
    7    -1.000000   180.000000     0.000000     1.000000     0.000000     0.000000     0.000000     0.000000
    8    -1.000000   180.000000     0.000000    -0.707107     0.707107     0.000000     0.000000     0.000000
 
 Subroutine IBZKPT returns following result:
 ===========================================
 
 Found      6 irreducible k-points:
 
 Following reciprocal coordinates:
            Coordinates               Weight
  0.000000  0.000000  0.000000      1.000000
  0.500000  0.000000  0.000000      1.000000
  0.000000  0.500000  0.000000      2.000000
  0.500000  0.500000  0.000000      2.000000
  0.000000  0.500000  0.500000      1.000000
  0.500000  0.500000  0.500000      1.000000
 
 Following cartesian coordinates:
            Coordinates               Weight
  0.000000  0.000000  0.000000      1.000000
  0.048253  0.000000  0.000000      1.000000
  0.000000  0.048253  0.000000      2.000000
  0.048253  0.048253  0.000000      2.000000
  0.000000  0.048253  0.048253      1.000000
  0.048253  0.048253  0.048253      1.000000
 


--------------------------------------------------------------------------------------------------------




 Dimension of arrays:
   k-points           NKPTS =      6   k-points in BZ     NKDIM =      6   number of bands    NBANDS=    268
   number of dos      NEDOS =    301   number of ions     NIONS =     64
   non local maximal  LDIM  =      5   non local SUM 2l+1 LMDIM =     13
   total plane-waves  NPLWV = 512000
   max r-space proj   IRMAX =      1   max aug-charges    IRDMAX= 116174
   dimension x,y,z NGX =    80 NGY =   80 NGZ =   80
   dimension x,y,z NGXF=   160 NGYF=  160 NGZF=  160
   support grid    NGXF=   320 NGYF=  320 NGZF=  320
   ions per type =              32  32
 NGX,Y,Z   is equivalent  to a cutoff of  12.84, 12.84, 12.84 a.u.
 NGXF,Y,Z  is equivalent  to a cutoff of  25.67, 25.67, 25.67 a.u.


 I would recommend the setting:
   dimension x,y,z NGX =    77 NGY =   77 NGZ =   77
 SYSTEM =  unknown system                          
 POSCAR =   Mg S                                   

 Startparameter for this run:
   NWRITE =      2    write-flag & timer
   PREC   = accura    normal or accurate (medium, high low for compatibility)
   ISTART =      0    job   : 0-new  1-cont  2-samecut
   ICHARG =      2    charge: 1-file 2-atom 10-const
   ISPIN  =      1    spin polarized calculation?
   LNONCOLLINEAR =      F non collinear calculations
   LSORBIT =      F    spin-orbit coupling
   INIWAV =      1    electr: 0-lowe 1-rand  2-diag
   LASPH  =      F    aspherical Exc in radial PAW
   METAGGA=      F    non-selfconsistent MetaGGA calc.

 Electronic Relaxation 1
   ENCUT  =  525.1 eV  38.59 Ry    6.21 a.u.  19.36 19.36 19.36*2*pi/ulx,y,z
   ENINI  =  525.1     initial cutoff
   ENAUG  =  758.8 eV  augmentation charge cutoff
   NELM   =     60;   NELMIN=  5; NELMDL= -5     # of ELM steps 
   EDIFF  = 0.1E-07   stopping-criterion for ELM
   LREAL  =      F    real-space projection
   NLSPLINE    = F    spline interpolate recip. space projectors
   LCOMPAT=      F    compatible to vasp.4.4
   GGA_COMPAT  = T    GGA compatible to vasp.4.4-vasp.4.6
   LMAXPAW     = -100 max onsite density
   LMAXMIX     =    2 max onsite mixed and CHGCAR
   VOSKOWN=      0    Vosko Wilk Nusair interpolation
   ROPT   =    0.00000   0.00000
 Ionic relaxation
   EDIFFG = 0.1E-06   stopping-criterion for IOM
   NSW    =      0    number of steps for IOM
   NBLOCK =      1;   KBLOCK =      1    inner block; outer block 
   IBRION =     -1    ionic relax: 0-MD 1-quasi-New 2-CG
   NFREE  =      0    steps in history (QN), initial steepest desc. (CG)
   ISIF   =      2    stress and relaxation
   IWAVPR =     10    prediction:  0-non 1-charg 2-wave 3-comb
   ISYM   =      2    0-nonsym 1-usesym 2-fastsym
   LCORR  =      T    Harris-Foulkes like correction to forces

   POTIM  = 0.5000    time-step for ionic-motion
   TEIN   =    0.0    initial temperature
   TEBEG  =    0.0;   TEEND  =   0.0 temperature during run
   SMASS  =  -3.00    Nose mass-parameter (am)
   estimated Nose-frequenzy (Omega)   =  0.10E-29 period in steps =****** mass=  -0.245E-26a.u.
   SCALEE = 1.0000    scale energy and forces
   NPACO  =    256;   APACO  = 16.0  distance and # of slots for P.C.
   PSTRESS=    0.0 pullay stress

  Mass of Ions in am
   POMASS =  24.30 32.07
  Ionic Valenz
   ZVAL   =   8.00  6.00
  Atomic Wigner-Seitz radii
   RWIGS  =  -1.00 -1.00
  virtual crystal weights 
   VCA    =   1.00  1.00
   NELECT =     448.0000    total number of electrons
   NUPDOWN=      -1.0000    fix difference up-down

 DOS related values:
   EMIN   =  10.00;   EMAX   =-10.00  energy-range for DOS
   EFERMI =   0.00
   ISMEAR =     0;   SIGMA  =   0.01  broadening in eV -4-tet -1-fermi 0-gaus

 Electronic relaxation 2 (details)
   IALGO  =     38    algorithm
   LDIAG  =      T    sub-space diagonalisation (order eigenvalues)
   LSUBROT=      F    optimize rotation matrix (better conditioning)
   TURBO    =      0    0=normal 1=particle mesh
   IRESTART =      0    0=no restart 2=restart with 2 vectors
   NREBOOT  =      0    no. of reboots
   NMIN     =      0    reboot dimension
   EREF     =   0.00    reference energy to select bands
   IMIX   =      4    mixing-type and parameters
     AMIX     =   0.40;   BMIX     =  1.00
     AMIX_MAG =   1.60;   BMIX_MAG =  1.00
     AMIN     =   0.10
     WC   =   100.;   INIMIX=   1;  MIXPRE=   1;  MAXMIX= -45

 Intra band minimization:
   WEIMIN = 0.0000     energy-eigenvalue tresh-hold
   EBREAK =  0.93E-11  absolut break condition
   DEPER  =   0.30     relativ break condition  

   TIME   =   0.40     timestep for ELM

  volume/ion in A,a.u.               =      17.38       117.31
  Fermi-wavevector in a.u.,A,eV,Ry     =   1.208907  2.284503 19.884315  1.461456
  Thomas-Fermi vector in A             =   2.344500
 
 Write flags
   LWAVE  =      F    write WAVECAR
   LCHARG =      F    write CHGCAR
   LVTOT  =      F    write LOCPOT, total local potential
   LVHAR  =      F    write LOCPOT, Hartree potential only
   LELF   =      F    write electronic localiz. function (ELF)
   LORBIT =      0    0 simple, 1 ext, 2 COOP (PROOUT)


 Dipole corrections
   LMONO  =      F    monopole corrections only (constant potential shift)
   LDIPOL =      F    correct potential (dipole corrections)
   IDIPOL =      0    1-x, 2-y, 3-z, 4-all directions 
   EPSILON=  1.0000000 bulk dielectric constant

 Exchange correlation treatment:
   GGA     =    PS    GGA type
   LEXCH   =    14    internal setting for exchange type
   VOSKOWN=      0    Vosko Wilk Nusair interpolation
   LHFCALC =     F    Hartree Fock is set to
   LHFONE  =     F    Hartree Fock one center treatment
   AEXX    =    0.0000 exact exchange contribution

 Linear response parameters
   LEPSILON=     F    determine dielectric tensor
   LRPA    =     F    only Hartree local field effects (RPA)
   LNABLA  =     F    use nabla operator in PAW spheres
   LVEL    =     F    velocity operator in full k-point grid
   LINTERFAST=   F  fast interpolation
   KINTER  =     0    interpolate to denser k-point grid
   CSHIFT  =0.1000    complex shift for real part using Kramers Kronig
   OMEGAMAX=  -1.0    maximum frequency
   DEG_THRESHOLD= 0.2000000E-02 threshold for treating states as degnerate
   RTIME   =    0.100 relaxation time in fs

 Orbital magnetization related:
   ORBITALMAG=     F  switch on orbital magnetization
   LCHIMAG   =     F  perturbation theory with respect to B field
   DQ        =  0.001000  dq finite difference perturbation B field



--------------------------------------------------------------------------------------------------------


 Static calculation
 charge density and potential will be updated during run
 non-spin polarized calculation
 Variant of blocked Davidson
 Davidson routine will perform the subspace rotation
 perform sub-space diagonalisation
    after iterative eigenvector-optimisation
 modified Broyden-mixing scheme, WC =      100.0
 initial mixing is a Kerker type mixing with AMIX =  0.4000 and BMIX =      1.0000
 Hartree-type preconditioning will be used
 using additional bands           44
 reciprocal scheme for non local part
 use partial core corrections
 calculate Harris-corrections to forces 
   (improved forces if not selfconsistent)
 use gradient corrections 
 use of overlap-Matrix (Vanderbilt PP)
 Gauss-broadening in eV      SIGMA  =   0.01


--------------------------------------------------------------------------------------------------------


  energy-cutoff  :      525.11
  volume of cell :     1112.56
      direct lattice vectors                 reciprocal lattice vectors
    10.361945660  0.000000000  0.000000000     0.096506972  0.000000000  0.000000000
     0.000000000 10.361945660  0.000000000     0.000000000  0.096506972  0.000000000
     0.000000000  0.000000000 10.361945660     0.000000000  0.000000000  0.096506972

  length of vectors
    10.361945660 10.361945660 10.361945660     0.096506972  0.096506972  0.096506972


 
 k-points in units of 2pi/SCALE and weight: Automatic mesh                          
   0.00000000  0.00000000  0.00000000       0.125
   0.04825349  0.00000000  0.00000000       0.125
   0.00000000  0.04825349  0.00000000       0.250
   0.04825349  0.04825349  0.00000000       0.250
   0.00000000  0.04825349  0.04825349       0.125
   0.04825349  0.04825349  0.04825349       0.125
 
 k-points in reciprocal lattice and weights: Automatic mesh                          
   0.00000000  0.00000000  0.00000000       0.125
   0.50000000  0.00000000  0.00000000       0.125
   0.00000000  0.50000000  0.00000000       0.250
   0.50000000  0.50000000  0.00000000       0.250
   0.00000000  0.50000000  0.50000000       0.125
   0.50000000  0.50000000  0.50000000       0.125
 
 position of ions in fractional coordinates (direct lattice) 
   0.00000000  0.00000000  0.00000000
   0.50000000  0.00000000  0.00000000
   0.00000000  0.50000000  0.00000000
   0.50000000  0.50000000  0.00000000
   0.00000000  0.00000000  0.50000000
   0.50000000  0.00000000  0.50000000
   0.00000000  0.50000000  0.50000000
   0.50000000  0.50000000  0.50000000
   0.00000000  0.25000000  0.25000000
   0.50000000  0.25000000  0.25000000
   0.00000000  0.75000000  0.25000000
   0.50000000  0.75000000  0.25000000
   0.00000000  0.25000000  0.75000000
   0.50000000  0.25000000  0.75000000
   0.00000000  0.75000000  0.75000000
   0.50000000  0.75000000  0.75000000
   0.25000000  0.00000000  0.25000000
   0.75000000  0.00000000  0.25000000
   0.25000000  0.50000000  0.25000000
   0.75000000  0.50000000  0.25000000
   0.25000000  0.00000000  0.75000000
   0.75000000  0.00000000  0.75000000
   0.25000000  0.50000000  0.75000000
   0.75000000  0.50000000  0.75000000
   0.25000000  0.25000000  0.00000000
   0.75000000  0.25000000  0.00000000
   0.25000000  0.75000000  0.00000000
   0.75000000  0.75000000  0.00000000
   0.25000000  0.25000000  0.50000000
   0.75000000  0.25000000  0.50000000
   0.25000000  0.75000000  0.50000000
   0.75000000  0.75000000  0.50000000
   0.25096507  0.00000000  0.00000000
   0.75000000  0.00000000  0.00000000
   0.25000000  0.50000000  0.00000000
   0.75000000  0.50000000  0.00000000
   0.25000000  0.00000000  0.50000000
   0.75000000  0.00000000  0.50000000
   0.25000000  0.50000000  0.50000000
   0.75000000  0.50000000  0.50000000
   0.25000000  0.25000000  0.25000000
   0.75000000  0.25000000  0.25000000
   0.25000000  0.75000000  0.25000000
   0.75000000  0.75000000  0.25000000
   0.25000000  0.25000000  0.75000000
   0.75000000  0.25000000  0.75000000
   0.25000000  0.75000000  0.75000000
   0.75000000  0.75000000  0.75000000
   0.00000000  0.00000000  0.25000000
   0.50000000  0.00000000  0.25000000
   0.00000000  0.50000000  0.25000000
   0.50000000  0.50000000  0.25000000
   0.00000000  0.00000000  0.75000000
   0.50000000  0.00000000  0.75000000
   0.00000000  0.50000000  0.75000000
   0.50000000  0.50000000  0.75000000
   0.00000000  0.25000000  0.00000000
   0.50000000  0.25000000  0.00000000
   0.00000000  0.75000000  0.00000000
   0.50000000  0.75000000  0.00000000
   0.00000000  0.25000000  0.50000000
   0.50000000  0.25000000  0.50000000
   0.00000000  0.75000000  0.50000000
   0.50000000  0.75000000  0.50000000
 
 position of ions in cartesian coordinates  (Angst):
   0.00000000  0.00000000  0.00000000
   5.18097283  0.00000000  0.00000000
   0.00000000  5.18097283  0.00000000
   5.18097283  5.18097283  0.00000000
   0.00000000  0.00000000  5.18097283
   5.18097283  0.00000000  5.18097283
   0.00000000  5.18097283  5.18097283
   5.18097283  5.18097283  5.18097283
   0.00000000  2.59048641  2.59048641
   5.18097283  2.59048641  2.59048641
   0.00000000  7.77145924  2.59048641
   5.18097283  7.77145924  2.59048641
   0.00000000  2.59048641  7.77145924
   5.18097283  2.59048641  7.77145924
   0.00000000  7.77145924  7.77145924
   5.18097283  7.77145924  7.77145924
   2.59048641  0.00000000  2.59048641
   7.77145924  0.00000000  2.59048641
   2.59048641  5.18097283  2.59048641
   7.77145924  5.18097283  2.59048641
   2.59048641  0.00000000  7.77145924
   7.77145924  0.00000000  7.77145924
   2.59048641  5.18097283  7.77145924
   7.77145924  5.18097283  7.77145924
   2.59048641  2.59048641  0.00000000
   7.77145924  2.59048641  0.00000000
   2.59048641  7.77145924  0.00000000
   7.77145924  7.77145924  0.00000000
   2.59048641  2.59048641  5.18097283
   7.77145924  2.59048641  5.18097283
   2.59048641  7.77145924  5.18097283
   7.77145924  7.77145924  5.18097283
   2.60048642  0.00000000  0.00000000
   7.77145924  0.00000000  0.00000000
   2.59048641  5.18097283  0.00000000
   7.77145924  5.18097283  0.00000000
   2.59048641  0.00000000  5.18097283
   7.77145924  0.00000000  5.18097283
   2.59048641  5.18097283  5.18097283
   7.77145924  5.18097283  5.18097283
   2.59048641  2.59048641  2.59048641
   7.77145924  2.59048641  2.59048641
   2.59048641  7.77145924  2.59048641
   7.77145924  7.77145924  2.59048641
   2.59048641  2.59048641  7.77145924
   7.77145924  2.59048641  7.77145924
   2.59048641  7.77145924  7.77145924
   7.77145924  7.77145924  7.77145924
   0.00000000  0.00000000  2.59048641
   5.18097283  0.00000000  2.59048641
   0.00000000  5.18097283  2.59048641
   5.18097283  5.18097283  2.59048641
   0.00000000  0.00000000  7.77145924
   5.18097283  0.00000000  7.77145924
   0.00000000  5.18097283  7.77145924
   5.18097283  5.18097283  7.77145924
   0.00000000  2.59048641  0.00000000
   5.18097283  2.59048641  0.00000000
   0.00000000  7.77145924  0.00000000
   5.18097283  7.77145924  0.00000000
   0.00000000  2.59048641  5.18097283
   5.18097283  2.59048641  5.18097283
   0.00000000  7.77145924  5.18097283
   5.18097283  7.77145924  5.18097283
 


--------------------------------------------------------------------------------------------------------


 k-point  1 :   0.0000 0.0000 0.0000  plane waves:   30551
 k-point  2 :   0.5000 0.0000 0.0000  plane waves:   30334
 k-point  3 :   0.0000 0.5000 0.0000  plane waves:   30334
 k-point  4 :   0.5000 0.5000 0.0000  plane waves:   30432
 k-point  5 :   0.0000 0.5000 0.5000  plane waves:   30432
 k-point  6 :   0.5000 0.5000 0.5000  plane waves:   30592

 maximum and minimum number of plane-waves per node :      6185     6010

 maximum number of plane-waves:     30592
 maximum index in each direction: 
   IXMAX=   19   IYMAX=   19   IZMAX=   19
   IXMIN=  -19   IYMIN=  -19   IZMIN=  -19

 NGX is ok and might be reduce to  78
 NGY is ok and might be reduce to  78
 NGZ is ok and might be reduce to  78

 parallel 3D FFT for wavefunctions:
    minimum data exchange during FFTs selected (reduces bandwidth)
 parallel 3D FFT for charge:
    minimum data exchange during FFTs selected (reduces bandwidth)


 total amount of memory used by VASP on root node   133595. kBytes
========================================================================

   base      :      30000. kBytes
   nonl-proj :      14059. kBytes
   fftplans  :      33043. kBytes
   grid      :      15687. kBytes
   one-center:        105. kBytes
   wavefun   :      40701. kBytes
 
     INWAV:  cpu time    0.00: real time    0.00
 Broyden mixing: mesh for mixing (old mesh)
   NGX = 39   NGY = 39   NGZ = 39
  (NGX  =160   NGY  =160   NGZ  =160)
  gives a total of  59319 points

 initial charge density was supplied:
 charge density of overlapping atoms calculated
 number of electron     448.0000000 magnetization 
 keeping initial charge density in first step


--------------------------------------------------------------------------------------------------------


 Maximum index for augmentation-charges         5931 (set IRDMAX)


--------------------------------------------------------------------------------------------------------


 First call to EWALD:  gamma=   0.171
 Maximum number of real-space cells 3x 3x 3
 Maximum number of reciprocal cells 3x 3x 3

 FEWALD executed in parallel
    FEWALD:  cpu time    0.00: real time    0.00


----------------------------------------- Iteration    1(   1)  ---------------------------------------


    POTLOK:  cpu time    0.17: real time    0.17
    SETDIJ:  cpu time    0.21: real time    0.21
     EDDAV:  cpu time   24.50: real time   24.51
       DOS:  cpu time    0.00: real time    0.00
    --------------------------------------------
      LOOP:  cpu time   24.89: real time   24.90

 eigenvalue-minimisations  :  3888
 total energy-change (2. order) : 0.4299667E+04  (-0.2667665E+05)
 number of electron     448.0000000 magnetization 
 augmentation part      448.0000000 magnetization 

 Free energy of the ion-electron system (eV)
  ---------------------------------------------------
  alpha Z        PSCENC =      1221.40497399
  Ewald energy   TEWEN  =    -25040.94142270
  -Hartree energ DENC   =     -9314.42074412
  -exchange      EXHF   =         0.00000000
  -V(xc)+E(xc)   XCENC  =      1275.11158671
  PAW double counting   =     27701.73694044   -31358.41014717
  entropy T*S    EENTRO =        -0.00015467
  eigenvalues    EBANDS =     -2758.45706361
  atomic energy  EATOM  =     42573.64344421
  ---------------------------------------------------
  free energy    TOTEN  =      4299.66741308 eV

  energy without entropy =     4299.66756774  energy(sigma->0) =     4299.66749041


--------------------------------------------------------------------------------------------------------




----------------------------------------- Iteration    1(   2)  ---------------------------------------


     EDDAV:  cpu time   24.11: real time   24.10
       DOS:  cpu time    0.00: real time    0.00
    --------------------------------------------
      LOOP:  cpu time   24.11: real time   24.11

 eigenvalue-minimisations  :  3824
 total energy-change (2. order) :-0.4198934E+04  (-0.4045983E+04)
 number of electron     448.0000000 magnetization 
 augmentation part      448.0000000 magnetization 

 Free energy of the ion-electron system (eV)
  ---------------------------------------------------
  alpha Z        PSCENC =      1221.40497399
  Ewald energy   TEWEN  =    -25040.94142270
  -Hartree energ DENC   =     -9314.42074412
  -exchange      EXHF   =         0.00000000
  -V(xc)+E(xc)   XCENC  =      1275.11158671
  PAW double counting   =     27701.73694044   -31358.41014717
  entropy T*S    EENTRO =         0.00000000
  eigenvalues    EBANDS =     -6957.39121547
  atomic energy  EATOM  =     42573.64344421
  ---------------------------------------------------
  free energy    TOTEN  =       100.73341589 eV

  energy without entropy =      100.73341589  energy(sigma->0) =      100.73341589


--------------------------------------------------------------------------------------------------------




----------------------------------------- Iteration    1(   3)  ---------------------------------------


     EDDAV:  cpu time   24.47: real time   24.48
       DOS:  cpu time    0.00: real time    0.00
    --------------------------------------------
      LOOP:  cpu time   24.48: real time   24.49

 eigenvalue-minimisations  :  3888
 total energy-change (2. order) :-0.3829858E+03  (-0.3793537E+03)
 number of electron     448.0000000 magnetization 
 augmentation part      448.0000000 magnetization 

 Free energy of the ion-electron system (eV)
  ---------------------------------------------------
  alpha Z        PSCENC =      1221.40497399
  Ewald energy   TEWEN  =    -25040.94142270
  -Hartree energ DENC   =     -9314.42074412
  -exchange      EXHF   =         0.00000000
  -V(xc)+E(xc)   XCENC  =      1275.11158671
  PAW double counting   =     27701.73694044   -31358.41014717
  entropy T*S    EENTRO =         0.00000000
  eigenvalues    EBANDS =     -7340.37701071
  atomic energy  EATOM  =     42573.64344421
  ---------------------------------------------------
  free energy    TOTEN  =      -282.25237935 eV

  energy without entropy =     -282.25237935  energy(sigma->0) =     -282.25237935


--------------------------------------------------------------------------------------------------------




----------------------------------------- Iteration    1(   4)  ---------------------------------------


     EDDAV:  cpu time   23.31: real time   23.32
       DOS:  cpu time    0.00: real time    0.00
    --------------------------------------------
      LOOP:  cpu time   23.31: real time   23.32

 eigenvalue-minimisations  :  3648
 total energy-change (2. order) :-0.1857823E+02  (-0.1851427E+02)
 number of electron     448.0000000 magnetization 
 augmentation part      448.0000000 magnetization 

 Free energy of the ion-electron system (eV)
  ---------------------------------------------------
  alpha Z        PSCENC =      1221.40497399
  Ewald energy   TEWEN  =    -25040.94142270
  -Hartree energ DENC   =     -9314.42074412
  -exchange      EXHF   =         0.00000000
  -V(xc)+E(xc)   XCENC  =      1275.11158671
  PAW double counting   =     27701.73694044   -31358.41014717
  entropy T*S    EENTRO =         0.00000000
  eigenvalues    EBANDS =     -7358.95523748
  atomic energy  EATOM  =     42573.64344421
  ---------------------------------------------------
  free energy    TOTEN  =      -300.83060612 eV

  energy without entropy =     -300.83060612  energy(sigma->0) =     -300.83060612


--------------------------------------------------------------------------------------------------------




----------------------------------------- Iteration    1(   5)  ---------------------------------------


     EDDAV:  cpu time   25.29: real time   25.29
       DOS:  cpu time    0.00: real time    0.00
    CHARGE:  cpu time    1.01: real time    1.01
    MIXING:  cpu time    0.01: real time    0.01
    --------------------------------------------
      LOOP:  cpu time   26.31: real time   26.31

 eigenvalue-minimisations  :  4048
 total energy-change (2. order) :-0.8379723E+00  (-0.8373302E+00)
 number of electron     448.0000000 magnetization 
 augmentation part      105.4577624 magnetization 

 Broyden mixing:
  rms(total) = 0.24696E+01    rms(broyden)= 0.24695E+01
  rms(prec ) = 0.29421E+01
  weight for this iteration     100.00

 Free energy of the ion-electron system (eV)
  ---------------------------------------------------
  alpha Z        PSCENC =      1221.40497399
  Ewald energy   TEWEN  =    -25040.94142270
  -Hartree energ DENC   =     -9314.42074412
  -exchange      EXHF   =         0.00000000
  -V(xc)+E(xc)   XCENC  =      1275.11158671
  PAW double counting   =     27701.73694044   -31358.41014717
  entropy T*S    EENTRO =         0.00000000
  eigenvalues    EBANDS =     -7359.79320979
  atomic energy  EATOM  =     42573.64344421
  ---------------------------------------------------
  free energy    TOTEN  =      -301.66857843 eV

  energy without entropy =     -301.66857843  energy(sigma->0) =     -301.66857843


--------------------------------------------------------------------------------------------------------




----------------------------------------- Iteration    1(   6)  ---------------------------------------


    POTLOK:  cpu time    0.17: real time    0.17
    SETDIJ:  cpu time    0.21: real time    0.21
     EDDAV:  cpu time   22.87: real time   22.87
       DOS:  cpu time    0.00: real time    0.00
    CHARGE:  cpu time    1.03: real time    1.03
    MIXING:  cpu time    0.01: real time    0.01
    --------------------------------------------
      LOOP:  cpu time   24.29: real time   24.29

 eigenvalue-minimisations  :  3560
 total energy-change (2. order) : 0.1048888E+02  (-0.2121787E+01)
 number of electron     448.0000000 magnetization 
 augmentation part      106.7055943 magnetization 

 Broyden mixing:
  rms(total) = 0.17864E+01    rms(broyden)= 0.17864E+01
  rms(prec ) = 0.19001E+01
  weight for this iteration     100.00

 eigenvalues of (default mixing * dielectric matrix)
  average eigenvalue GAMMA=   2.1110
  2.1110

 Free energy of the ion-electron system (eV)
  ---------------------------------------------------
  alpha Z        PSCENC =      1221.40497399
  Ewald energy   TEWEN  =    -25040.94142270
  -Hartree energ DENC   =     -9301.94963544
  -exchange      EXHF   =         0.00000000
  -V(xc)+E(xc)   XCENC  =      1283.83877117
  PAW double counting   =     29960.80925386   -33588.73773113
  entropy T*S    EENTRO =         0.00000000
  eigenvalues    EBANDS =     -7399.24735414
  atomic energy  EATOM  =     42573.64344421
  ---------------------------------------------------
  free energy    TOTEN  =      -291.17970019 eV

  energy without entropy =     -291.17970019  energy(sigma->0) =     -291.17970019


--------------------------------------------------------------------------------------------------------




----------------------------------------- Iteration    1(   7)  ---------------------------------------


    POTLOK:  cpu time    0.17: real time    0.17
    SETDIJ:  cpu time    0.21: real time    0.21
     EDDAV:  cpu time   23.80: real time   23.79
       DOS:  cpu time    0.00: real time    0.00
    CHARGE:  cpu time    1.01: real time    1.01
    MIXING:  cpu time    0.01: real time    0.01
    --------------------------------------------
      LOOP:  cpu time   25.21: real time   25.21

 eigenvalue-minimisations  :  3752
 total energy-change (2. order) : 0.1267282E+01  (-0.7928495E+00)
 number of electron     448.0000000 magnetization 
 augmentation part      107.4667755 magnetization 

 Broyden mixing:
  rms(total) = 0.89618E+00    rms(broyden)= 0.89618E+00
  rms(prec ) = 0.91721E+00
  weight for this iteration     100.00

 eigenvalues of (default mixing * dielectric matrix)
  average eigenvalue GAMMA=   2.1991
  1.4561  2.9422

 Free energy of the ion-electron system (eV)
  ---------------------------------------------------
  alpha Z        PSCENC =      1221.40497399
  Ewald energy   TEWEN  =    -25040.94142270
  -Hartree energ DENC   =     -9273.72388290
  -exchange      EXHF   =         0.00000000
  -V(xc)+E(xc)   XCENC  =      1290.59371377
  PAW double counting   =     34416.03020150   -38032.13603477
  entropy T*S    EENTRO =         0.00000000
  eigenvalues    EBANDS =     -7444.78341146
  atomic energy  EATOM  =     42573.64344421
  ---------------------------------------------------
  free energy    TOTEN  =      -289.91241837 eV

  energy without entropy =     -289.91241837  energy(sigma->0) =     -289.91241837


--------------------------------------------------------------------------------------------------------




----------------------------------------- Iteration    1(   8)  ---------------------------------------


    POTLOK:  cpu time    0.17: real time    0.17
    SETDIJ:  cpu time    0.21: real time    0.21
     EDDAV:  cpu time   22.64: real time   22.63
       DOS:  cpu time    0.00: real time    0.00
    CHARGE:  cpu time    1.01: real time    1.01
    MIXING:  cpu time    0.01: real time    0.01
    --------------------------------------------
      LOOP:  cpu time   24.05: real time   24.05

 eigenvalue-minimisations  :  3516
 total energy-change (2. order) : 0.7712926E-01  (-0.7010330E-01)
 number of electron     448.0000000 magnetization 
 augmentation part      107.2628007 magnetization 

 Broyden mixing:
  rms(total) = 0.23404E+00    rms(broyden)= 0.23404E+00
  rms(prec ) = 0.23650E+00
  weight for this iteration     100.00

 eigenvalues of (default mixing * dielectric matrix)
  average eigenvalue GAMMA=   1.6076
  2.4820  0.9347  1.4062

 Free energy of the ion-electron system (eV)
  ---------------------------------------------------
  alpha Z        PSCENC =      1221.40497399
  Ewald energy   TEWEN  =    -25040.94142270
  -Hartree energ DENC   =     -9240.90378572
  -exchange      EXHF   =         0.00000000
  -V(xc)+E(xc)   XCENC  =      1291.42351105
  PAW double counting   =     38465.79098648   -42090.75188112
  entropy T*S    EENTRO =         0.00000000
  eigenvalues    EBANDS =     -7469.50111528
  atomic energy  EATOM  =     42573.64344421
  ---------------------------------------------------
  free energy    TOTEN  =      -289.83528910 eV

  energy without entropy =     -289.83528910  energy(sigma->0) =     -289.83528910


--------------------------------------------------------------------------------------------------------




----------------------------------------- Iteration    1(   9)  ---------------------------------------


    POTLOK:  cpu time    0.17: real time    0.17
    SETDIJ:  cpu time    0.21: real time    0.21
     EDDAV:  cpu time   23.43: real time   23.43
       DOS:  cpu time    0.00: real time    0.00
    CHARGE:  cpu time    1.03: real time    1.03
    MIXING:  cpu time    0.01: real time    0.01
    --------------------------------------------
      LOOP:  cpu time   24.86: real time   24.86

 eigenvalue-minimisations  :  3680
 total energy-change (2. order) : 0.4593792E-02  (-0.2537386E-02)
 number of electron     448.0000000 magnetization 
 augmentation part      107.2892272 magnetization 

 Broyden mixing:
  rms(total) = 0.47295E-01    rms(broyden)= 0.47295E-01
  rms(prec ) = 0.48790E-01
  weight for this iteration     100.00

 eigenvalues of (default mixing * dielectric matrix)
  average eigenvalue GAMMA=   1.8818
  2.5326  2.5326  1.0407  1.4212

 Free energy of the ion-electron system (eV)
  ---------------------------------------------------
  alpha Z        PSCENC =      1221.40497399
  Ewald energy   TEWEN  =    -25040.94142270
  -Hartree energ DENC   =     -9244.94872708
  -exchange      EXHF   =         0.00000000
  -V(xc)+E(xc)   XCENC  =      1291.27671231
  PAW double counting   =     37652.90346071   -41276.32532223
  entropy T*S    EENTRO =         0.00000000
  eigenvalues    EBANDS =     -7466.84381453
  atomic energy  EATOM  =     42573.64344421
  ---------------------------------------------------
  free energy    TOTEN  =      -289.83069531 eV

  energy without entropy =     -289.83069531  energy(sigma->0) =     -289.83069531


--------------------------------------------------------------------------------------------------------




----------------------------------------- Iteration    1(  10)  ---------------------------------------


    POTLOK:  cpu time    0.17: real time    0.17
    SETDIJ:  cpu time    0.21: real time    0.21
     EDDAV:  cpu time   23.65: real time   23.65
       DOS:  cpu time    0.00: real time    0.00
    CHARGE:  cpu time    1.01: real time    1.01
    MIXING:  cpu time    0.01: real time    0.01
    --------------------------------------------
      LOOP:  cpu time   25.06: real time   25.06

 eigenvalue-minimisations  :  3720
 total energy-change (2. order) :-0.4632731E-03  (-0.5842874E-03)
 number of electron     448.0000000 magnetization 
 augmentation part      107.3091776 magnetization 

 Broyden mixing:
  rms(total) = 0.22025E-01    rms(broyden)= 0.22025E-01
  rms(prec ) = 0.23160E-01
  weight for this iteration     100.00

 eigenvalues of (default mixing * dielectric matrix)
  average eigenvalue GAMMA=   1.6963
  2.6883  2.4726  1.2646  1.1733  0.8827

 Free energy of the ion-electron system (eV)
  ---------------------------------------------------
  alpha Z        PSCENC =      1221.40497399
  Ewald energy   TEWEN  =    -25040.94142270
  -Hartree energ DENC   =     -9242.70683159
  -exchange      EXHF   =         0.00000000
  -V(xc)+E(xc)   XCENC  =      1291.29473375
  PAW double counting   =     37362.59024217   -40986.09892825
  entropy T*S    EENTRO =         0.00000000
  eigenvalues    EBANDS =     -7469.01737017
  atomic energy  EATOM  =     42573.64344421
  ---------------------------------------------------
  free energy    TOTEN  =      -289.83115858 eV

  energy without entropy =     -289.83115858  energy(sigma->0) =     -289.83115858


--------------------------------------------------------------------------------------------------------




----------------------------------------- Iteration    1(  11)  ---------------------------------------


    POTLOK:  cpu time    0.17: real time    0.17
    SETDIJ:  cpu time    0.21: real time    0.21
     EDDAV:  cpu time   22.82: real time   22.82
       DOS:  cpu time    0.00: real time    0.00
    CHARGE:  cpu time    1.02: real time    1.02
    MIXING:  cpu time    0.01: real time    0.01
    --------------------------------------------
      LOOP:  cpu time   24.23: real time   24.24

 eigenvalue-minimisations  :  3552
 total energy-change (2. order) : 0.2457648E-03  (-0.9434794E-04)
 number of electron     448.0000000 magnetization 
 augmentation part      107.3006315 magnetization 

 Broyden mixing:
  rms(total) = 0.21731E-02    rms(broyden)= 0.21729E-02
  rms(prec ) = 0.22619E-02
  weight for this iteration     100.00

 eigenvalues of (default mixing * dielectric matrix)
  average eigenvalue GAMMA=   1.5452
  2.6643  2.4473  1.2328  1.2328  0.8470  0.8470

 Free energy of the ion-electron system (eV)
  ---------------------------------------------------
  alpha Z        PSCENC =      1221.40497399
  Ewald energy   TEWEN  =    -25040.94142270
  -Hartree energ DENC   =     -9242.01480517
  -exchange      EXHF   =         0.00000000
  -V(xc)+E(xc)   XCENC  =      1291.28122416
  PAW double counting   =     37428.95837681   -41052.79266490
  entropy T*S    EENTRO =         0.00000000
  eigenvalues    EBANDS =     -7469.37003922
  atomic energy  EATOM  =     42573.64344421
  ---------------------------------------------------
  free energy    TOTEN  =      -289.83091282 eV

  energy without entropy =     -289.83091282  energy(sigma->0) =     -289.83091282


--------------------------------------------------------------------------------------------------------




----------------------------------------- Iteration    1(  12)  ---------------------------------------


    POTLOK:  cpu time    0.17: real time    0.17
    SETDIJ:  cpu time    0.21: real time    0.21
     EDDAV:  cpu time   23.83: real time   23.83
       DOS:  cpu time    0.00: real time    0.00
    CHARGE:  cpu time    0.99: real time    1.00
    MIXING:  cpu time    0.01: real time    0.01
    --------------------------------------------
      LOOP:  cpu time   25.22: real time   25.23

 eigenvalue-minimisations  :  3764
 total energy-change (2. order) :-0.1524837E-05  (-0.3090318E-05)
 number of electron     448.0000000 magnetization 
 augmentation part      107.2996427 magnetization 

 Broyden mixing:
  rms(total) = 0.23840E-02    rms(broyden)= 0.23839E-02
  rms(prec ) = 0.24062E-02
  weight for this iteration     100.00

 eigenvalues of (default mixing * dielectric matrix)
  average eigenvalue GAMMA=   1.8279
  3.3578  2.7515  2.3755  1.3495  0.9481  1.0065  1.0065

 Free energy of the ion-electron system (eV)
  ---------------------------------------------------
  alpha Z        PSCENC =      1221.40497399
  Ewald energy   TEWEN  =    -25040.94142270
  -Hartree energ DENC   =     -9242.03989563
  -exchange      EXHF   =         0.00000000
  -V(xc)+E(xc)   XCENC  =      1291.28151019
  PAW double counting   =     37434.62497428   -41058.47359340
  entropy T*S    EENTRO =         0.00000000
  eigenvalues    EBANDS =     -7469.33090529
  atomic energy  EATOM  =     42573.64344421
  ---------------------------------------------------
  free energy    TOTEN  =      -289.83091434 eV

  energy without entropy =     -289.83091434  energy(sigma->0) =     -289.83091434


--------------------------------------------------------------------------------------------------------




----------------------------------------- Iteration    1(  13)  ---------------------------------------


    POTLOK:  cpu time    0.17: real time    0.17
    SETDIJ:  cpu time    0.22: real time    0.22
     EDDAV:  cpu time   23.16: real time   23.18
       DOS:  cpu time    0.00: real time    0.00
    CHARGE:  cpu time    1.01: real time    1.02
    MIXING:  cpu time    0.01: real time    0.01
    --------------------------------------------
      LOOP:  cpu time   24.58: real time   24.60

 eigenvalue-minimisations  :  3616
 total energy-change (2. order) :-0.3098598E-05  (-0.5004564E-06)
 number of electron     448.0000000 magnetization 
 augmentation part      107.2990339 magnetization 

 Broyden mixing:
  rms(total) = 0.28997E-03    rms(broyden)= 0.28996E-03
  rms(prec ) = 0.38782E-03
  weight for this iteration     100.00

 eigenvalues of (default mixing * dielectric matrix)
  average eigenvalue GAMMA=   1.6377
  2.7029  2.4385  2.4385  1.2610  1.2610  1.0277  0.9860  0.9860

 Free energy of the ion-electron system (eV)
  ---------------------------------------------------
  alpha Z        PSCENC =      1221.40497399
  Ewald energy   TEWEN  =    -25040.94142270
  -Hartree energ DENC   =     -9242.04015251
  -exchange      EXHF   =         0.00000000
  -V(xc)+E(xc)   XCENC  =      1291.27790447
  PAW double counting   =     37426.59739436   -41050.49144877
  entropy T*S    EENTRO =         0.00000000
  eigenvalues    EBANDS =     -7469.28161049
  atomic energy  EATOM  =     42573.64344421
  ---------------------------------------------------
  free energy    TOTEN  =      -289.83091744 eV

  energy without entropy =     -289.83091744  energy(sigma->0) =     -289.83091744


--------------------------------------------------------------------------------------------------------




----------------------------------------- Iteration    1(  14)  ---------------------------------------


    POTLOK:  cpu time    0.17: real time    0.17
    SETDIJ:  cpu time    0.21: real time    0.21
     EDDAV:  cpu time   23.15: real time   23.15
       DOS:  cpu time    0.00: real time    0.00
    CHARGE:  cpu time    1.01: real time    1.01
    MIXING:  cpu time    0.01: real time    0.01
    --------------------------------------------
      LOOP:  cpu time   24.56: real time   24.56

 eigenvalue-minimisations  :  3616
 total energy-change (2. order) : 0.2663437E-06  (-0.1631794E-06)
 number of electron     448.0000000 magnetization 
 augmentation part      107.2993660 magnetization 

 Broyden mixing:
  rms(total) = 0.21617E-03    rms(broyden)= 0.21617E-03
  rms(prec ) = 0.22128E-03
  weight for this iteration     100.00

 eigenvalues of (default mixing * dielectric matrix)
  average eigenvalue GAMMA=   1.4812
  2.7104  2.4214  2.4214  1.2687  1.2687  1.0228  0.9807  0.9807  0.2559

 Free energy of the ion-electron system (eV)
  ---------------------------------------------------
  alpha Z        PSCENC =      1221.40497399
  Ewald energy   TEWEN  =    -25040.94142270
  -Hartree energ DENC   =     -9242.04206868
  -exchange      EXHF   =         0.00000000
  -V(xc)+E(xc)   XCENC  =      1291.28075422
  PAW double counting   =     37428.51823959   -41052.39859028
  entropy T*S    EENTRO =         0.00000000
  eigenvalues    EBANDS =     -7469.29624753
  atomic energy  EATOM  =     42573.64344421
  ---------------------------------------------------
  free energy    TOTEN  =      -289.83091718 eV

  energy without entropy =     -289.83091718  energy(sigma->0) =     -289.83091718


--------------------------------------------------------------------------------------------------------




----------------------------------------- Iteration    1(  15)  ---------------------------------------


    POTLOK:  cpu time    0.17: real time    0.17
    SETDIJ:  cpu time    0.21: real time    0.21
     EDDAV:  cpu time   20.23: real time   20.24
       DOS:  cpu time    0.00: real time    0.00
    CHARGE:  cpu time    1.02: real time    1.02
    MIXING:  cpu time    0.01: real time    0.01
    --------------------------------------------
      LOOP:  cpu time   21.65: real time   21.66

 eigenvalue-minimisations  :  3016
 total energy-change (2. order) : 0.1100198E-06  (-0.5648661E-08)
 number of electron     448.0000000 magnetization 
 augmentation part      107.2993889 magnetization 

 Broyden mixing:
  rms(total) = 0.23389E-03    rms(broyden)= 0.23389E-03
  rms(prec ) = 0.23663E-03
  weight for this iteration     100.00

 eigenvalues of (default mixing * dielectric matrix)
  average eigenvalue GAMMA=   1.6256
  3.1216  2.7305  2.4158  1.4035  1.4035  1.3198  1.0333  1.0333  0.8975  0.8975

 Free energy of the ion-electron system (eV)
  ---------------------------------------------------
  alpha Z        PSCENC =      1221.40497399
  Ewald energy   TEWEN  =    -25040.94142270
  -Hartree energ DENC   =     -9242.04320064
  -exchange      EXHF   =         0.00000000
  -V(xc)+E(xc)   XCENC  =      1291.28077188
  PAW double counting   =     37428.80467567   -41052.68370629
  entropy T*S    EENTRO =         0.00000000
  eigenvalues    EBANDS =     -7469.29645319
  atomic energy  EATOM  =     42573.64344421
  ---------------------------------------------------
  free energy    TOTEN  =      -289.83091707 eV

  energy without entropy =     -289.83091707  energy(sigma->0) =     -289.83091707


--------------------------------------------------------------------------------------------------------




----------------------------------------- Iteration    1(  16)  ---------------------------------------


    POTLOK:  cpu time    0.17: real time    0.17
    SETDIJ:  cpu time    0.21: real time    0.21
     EDDAV:  cpu time   18.90: real time   18.90
       DOS:  cpu time    0.00: real time    0.00
    CHARGE:  cpu time    1.02: real time    1.02
    MIXING:  cpu time    0.01: real time    0.01
    --------------------------------------------
      LOOP:  cpu time   20.32: real time   20.32

 eigenvalue-minimisations  :  2748
 total energy-change (2. order) :-0.3402238E-07  (-0.3266157E-08)
 number of electron     448.0000000 magnetization 
 augmentation part      107.2993407 magnetization 

 Broyden mixing:
  rms(total) = 0.92481E-04    rms(broyden)= 0.92481E-04
  rms(prec ) = 0.96448E-04
  weight for this iteration     100.00

 eigenvalues of (default mixing * dielectric matrix)
  average eigenvalue GAMMA=   1.5934
  2.8409  2.5767  2.5767  1.8849  1.0712  1.0712  1.3413  1.1824  1.1824  0.9888
  0.8101

 Free energy of the ion-electron system (eV)
  ---------------------------------------------------
  alpha Z        PSCENC =      1221.40497399
  Ewald energy   TEWEN  =    -25040.94142270
  -Hartree energ DENC   =     -9242.04430593
  -exchange      EXHF   =         0.00000000
  -V(xc)+E(xc)   XCENC  =      1291.28040901
  PAW double counting   =     37428.18143949   -41052.06209164
  entropy T*S    EENTRO =         0.00000000
  eigenvalues    EBANDS =     -7469.29336353
  atomic energy  EATOM  =     42573.64344421
  ---------------------------------------------------
  free energy    TOTEN  =      -289.83091710 eV

  energy without entropy =     -289.83091710  energy(sigma->0) =     -289.83091710


--------------------------------------------------------------------------------------------------------




----------------------------------------- Iteration    1(  17)  ---------------------------------------


    POTLOK:  cpu time    0.17: real time    0.17
    SETDIJ:  cpu time    0.21: real time    0.21
     EDDAV:  cpu time   15.29: real time   15.29
       DOS:  cpu time    0.00: real time    0.00
    CHARGE:  cpu time    1.02: real time    1.02
    MIXING:  cpu time    0.01: real time    0.01
    --------------------------------------------
      LOOP:  cpu time   16.71: real time   16.71

 eigenvalue-minimisations  :  2000
 total energy-change (2. order) : 0.1036606E-06  (-0.8912381E-09)
 number of electron     448.0000000 magnetization 
 augmentation part      107.2993678 magnetization 

 Broyden mixing:
  rms(total) = 0.10472E-03    rms(broyden)= 0.10472E-03
  rms(prec ) = 0.10553E-03
  weight for this iteration     100.00

 eigenvalues of (default mixing * dielectric matrix)
  average eigenvalue GAMMA=   1.5337
  2.9242  2.6648  2.4775  1.8490  1.0243  1.0243  1.3189  1.3189  1.1056  1.0128
  0.8423  0.8423

 Free energy of the ion-electron system (eV)
  ---------------------------------------------------
  alpha Z        PSCENC =      1221.40497399
  Ewald energy   TEWEN  =    -25040.94142270
  -Hartree energ DENC   =     -9242.04524322
  -exchange      EXHF   =         0.00000000
  -V(xc)+E(xc)   XCENC  =      1291.28061689
  PAW double counting   =     37428.37298712   -41052.25059891
  entropy T*S    EENTRO =         0.00000000
  eigenvalues    EBANDS =     -7469.29567437
  atomic energy  EATOM  =     42573.64344421
  ---------------------------------------------------
  free energy    TOTEN  =      -289.83091700 eV

  energy without entropy =     -289.83091700  energy(sigma->0) =     -289.83091700


--------------------------------------------------------------------------------------------------------




----------------------------------------- Iteration    1(  18)  ---------------------------------------


    POTLOK:  cpu time    0.17: real time    0.17
    SETDIJ:  cpu time    0.21: real time    0.21
     EDDAV:  cpu time   15.18: real time   15.19
       DOS:  cpu time    0.00: real time    0.00
    CHARGE:  cpu time    1.01: real time    1.01
    MIXING:  cpu time    0.01: real time    0.01
    --------------------------------------------
      LOOP:  cpu time   16.59: real time   16.60

 eigenvalue-minimisations  :  1976
 total energy-change (2. order) :-0.3886817E-07  (-0.4826182E-09)
 number of electron     448.0000000 magnetization 
 augmentation part      107.2993711 magnetization 

 Broyden mixing:
  rms(total) = 0.68458E-04    rms(broyden)= 0.68458E-04
  rms(prec ) = 0.68848E-04
  weight for this iteration     100.00

 eigenvalues of (default mixing * dielectric matrix)
  average eigenvalue GAMMA=   1.4453
  2.8884  2.6466  2.5071  1.9820  1.0218  1.0218  1.3258  1.2027  1.1673  1.0050
  0.8332  0.8332  0.3545

 Free energy of the ion-electron system (eV)
  ---------------------------------------------------
  alpha Z        PSCENC =      1221.40497399
  Ewald energy   TEWEN  =    -25040.94142270
  -Hartree energ DENC   =     -9242.04620791
  -exchange      EXHF   =         0.00000000
  -V(xc)+E(xc)   XCENC  =      1291.28063268
  PAW double counting   =     37428.21854293   -41052.09636013
  entropy T*S    EENTRO =         0.00000000
  eigenvalues    EBANDS =     -7469.29452010
  atomic energy  EATOM  =     42573.64344421
  ---------------------------------------------------
  free energy    TOTEN  =      -289.83091703 eV

  energy without entropy =     -289.83091703  energy(sigma->0) =     -289.83091703


--------------------------------------------------------------------------------------------------------




----------------------------------------- Iteration    1(  19)  ---------------------------------------


    POTLOK:  cpu time    0.17: real time    0.17
    SETDIJ:  cpu time    0.21: real time    0.21
     EDDAV:  cpu time   15.11: real time   15.12
       DOS:  cpu time    0.00: real time    0.00
    --------------------------------------------
      LOOP:  cpu time   15.50: real time   15.51

 eigenvalue-minimisations  :  1976
 total energy-change (2. order) :-0.3623427E-08  (-0.1070950E-09)
 number of electron     448.0000000 magnetization 
 augmentation part      107.2993711 magnetization 

 Free energy of the ion-electron system (eV)
  ---------------------------------------------------
  alpha Z        PSCENC =      1221.40497399
  Ewald energy   TEWEN  =    -25040.94142270
  -Hartree energ DENC   =     -9242.04623583
  -exchange      EXHF   =         0.00000000
  -V(xc)+E(xc)   XCENC  =      1291.28063226
  PAW double counting   =     37428.20714463   -41052.08497979
  entropy T*S    EENTRO =         0.00000000
  eigenvalues    EBANDS =     -7469.29447381
  atomic energy  EATOM  =     42573.64344421
  ---------------------------------------------------
  free energy    TOTEN  =      -289.83091704 eV

  energy without entropy =     -289.83091704  energy(sigma->0) =     -289.83091704


--------------------------------------------------------------------------------------------------------




 average (electrostatic) potential at core
  the test charge radii are     0.8294  0.9698
  (the norm of the test charge is              1.0000)
       1 -42.6008       2 -42.5806       3 -42.5923       4 -42.5892       5 -42.5923
       6 -42.5892       7 -42.5912       8 -42.5903       9 -42.5918      10 -42.5897
      11 -42.5918      12 -42.5897      13 -42.5918      14 -42.5897      15 -42.5918
      16 -42.5897      17 -42.5908      18 -42.5907      19 -42.5908      20 -42.5907
      21 -42.5908      22 -42.5907      23 -42.5908      24 -42.5907      25 -42.5908
      26 -42.5907      27 -42.5908      28 -42.5907      29 -42.5908      30 -42.5907
      31 -42.5908      32 -42.5907      33 -86.3059      34 -86.3059      35 -86.3059
      36 -86.3059      37 -86.3059      38 -86.3059      39 -86.3059      40 -86.3059
      41 -86.3059      42 -86.3059      43 -86.3059      44 -86.3059      45 -86.3059
      46 -86.3059      47 -86.3059      48 -86.3059      49 -86.3090      50 -86.3028
      51 -86.3065      52 -86.3054      53 -86.3090      54 -86.3028      55 -86.3065
      56 -86.3054      57 -86.3090      58 -86.3028      59 -86.3090      60 -86.3028
      61 -86.3065      62 -86.3054      63 -86.3065      64 -86.3054
 
 
 
 E-fermi :   3.7122     XC(G=0): -10.0700     alpha+bet :-10.6020


 k-point     1 :       0.0000    0.0000    0.0000
  band No.  band energies     occupation 
      1     -37.6496      2.00000
      2     -37.6491      2.00000
      3     -37.6491      2.00000
      4     -37.6434      2.00000
      5     -37.6434      2.00000
      6     -37.6434      2.00000
      7     -37.6431      2.00000
      8     -37.6422      2.00000
      9     -37.6422      2.00000
     10     -37.6422      2.00000
     11     -37.6417      2.00000
     12     -37.6414      2.00000
     13     -37.6414      2.00000
     14     -37.6414      2.00000
     15     -37.6414      2.00000
     16     -37.6414      2.00000
     17     -37.6414      2.00000
     18     -37.6411      2.00000
     19     -37.6411      2.00000
     20     -37.6408      2.00000
     21     -37.6408      2.00000
     22     -37.6407      2.00000
     23     -37.6407      2.00000
     24     -37.6405      2.00000
     25     -37.6405      2.00000
     26     -37.6404      2.00000
     27     -37.6404      2.00000
     28     -37.6403      2.00000
     29     -37.6403      2.00000
     30     -37.6403      2.00000
     31     -37.6401      2.00000
     32     -37.6399      2.00000
     33     -37.6395      2.00000
     34     -37.6395      2.00000
     35     -37.6394      2.00000
     36     -37.6392      2.00000
     37     -37.6392      2.00000
     38     -37.6392      2.00000
     39     -37.6390      2.00000
     40     -37.6390      2.00000
     41     -37.6390      2.00000
     42     -37.6389      2.00000
     43     -37.6388      2.00000
     44     -37.6388      2.00000
     45     -37.6388      2.00000
     46     -37.6388      2.00000
     47     -37.6388      2.00000
     48     -37.6388      2.00000
     49     -37.6388      2.00000
     50     -37.6388      2.00000
     51     -37.6387      2.00000
     52     -37.6387      2.00000
     53     -37.6386      2.00000
     54     -37.6386      2.00000
     55     -37.6386      2.00000
     56     -37.6386      2.00000
     57     -37.6385      2.00000
     58     -37.6385      2.00000
     59     -37.6379      2.00000
     60     -37.6379      2.00000
     61     -37.6379      2.00000
     62     -37.6379      2.00000
     63     -37.6376      2.00000
     64     -37.6375      2.00000
     65     -37.6374      2.00000
     66     -37.6374      2.00000
     67     -37.6373      2.00000
     68     -37.6371      2.00000
     69     -37.6371      2.00000
     70     -37.6371      2.00000
     71     -37.6371      2.00000
     72     -37.6368      2.00000
     73     -37.6368      2.00000
     74     -37.6367      2.00000
     75     -37.6367      2.00000
     76     -37.6367      2.00000
     77     -37.6367      2.00000
     78     -37.6367      2.00000
     79     -37.6367      2.00000
     80     -37.6365      2.00000
     81     -37.6365      2.00000
     82     -37.6365      2.00000
     83     -37.6365      2.00000
     84     -37.6363      2.00000
     85     -37.6363      2.00000
     86     -37.6363      2.00000
     87     -37.6363      2.00000
     88     -37.6361      2.00000
     89     -37.6361      2.00000
     90     -37.6360      2.00000
     91     -37.6355      2.00000
     92     -37.6352      2.00000
     93     -37.6352      2.00000
     94     -37.6286      2.00000
     95     -37.6286      2.00000
     96     -37.6281      2.00000
     97      -9.1732      2.00000
     98      -8.4084      2.00000
     99      -8.4077      2.00000
    100      -8.4077      2.00000
    101      -8.4077      2.00000
    102      -8.4077      2.00000
    103      -8.4070      2.00000
    104      -7.8876      2.00000
    105      -7.8867      2.00000
    106      -7.8867      2.00000
    107      -7.8856      2.00000
    108      -7.8856      2.00000
    109      -7.8856      2.00000
    110      -7.8856      2.00000
    111      -7.8856      2.00000
    112      -7.8856      2.00000
    113      -7.8846      2.00000
    114      -7.8846      2.00000
    115      -7.8837      2.00000
    116      -7.8025      2.00000
    117      -7.8025      2.00000
    118      -7.8024      2.00000
    119      -7.8024      2.00000
    120      -7.4243      2.00000
    121      -7.4243      2.00000
    122      -7.4242      2.00000
    123      -7.3740      2.00000
    124      -7.3733      2.00000
    125      -7.3733      2.00000
    126      -7.3733      2.00000
    127      -7.3732      2.00000
    128      -7.3724      2.00000
    129      -1.3772      2.00000
    130      -1.3772      2.00000
    131      -1.3772      2.00000
    132      -1.3772      2.00000
    133      -0.7318      2.00000
    134      -0.7318      2.00000
    135      -0.7318      2.00000
    136      -0.2109      2.00000
    137      -0.2094      2.00000
    138      -0.2094      2.00000
    139      -0.2091      2.00000
    140      -0.2091      2.00000
    141      -0.2091      2.00000
    142      -0.2091      2.00000
    143      -0.2091      2.00000
    144      -0.2091      2.00000
    145      -0.2089      2.00000
    146      -0.2089      2.00000
    147      -0.2073      2.00000
    148       0.2520      2.00000
    149       0.2520      2.00000
    150       0.2530      2.00000
    151       0.2530      2.00000
    152       0.2533      2.00000
    153       0.2533      2.00000
    154       0.2533      2.00000
    155       0.2533      2.00000
    156       0.2536      2.00000
    157       0.2536      2.00000
    158       0.2546      2.00000
    159       0.2546      2.00000
    160       0.9684      2.00000
    161       0.9689      2.00000
    162       0.9689      2.00000
    163       0.9689      2.00000
    164       0.9689      2.00000
    165       0.9695      2.00000
    166       1.1546      2.00000
    167       1.1562      2.00000
    168       1.1562      2.00000
    169       1.1564      2.00000
    170       1.1564      2.00000
    171       1.1577      2.00000
    172       1.1696      2.00000
    173       1.1696      2.00000
    174       1.1715      2.00000
    175       1.1716      2.00000
    176       1.1716      2.00000
    177       1.1716      2.00000
    178       1.1716      2.00000
    179       1.1716      2.00000
    180       1.1717      2.00000
    181       1.1720      2.00000
    182       1.1737      2.00000
    183       1.1737      2.00000
    184       1.8539      2.00000
    185       1.8539      2.00000
    186       1.8539      2.00000
    187       1.8539      2.00000
    188       1.8539      2.00000
    189       1.8539      2.00000
    190       2.5826      2.00000
    191       2.5826      2.00000
    192       2.5841      2.00000
    193       2.5841      2.00000
    194       2.5842      2.00000
    195       2.5843      2.00000
    196       2.5843      2.00000
    197       2.5843      2.00000
    198       2.5844      2.00000
    199       2.5844      2.00000
    200       2.5859      2.00000
    201       2.5859      2.00000
    202       2.9288      2.00000
    203       2.9296      2.00000
    204       2.9304      2.00000
    205       2.9304      2.00000
    206       2.9304      2.00000
    207       2.9305      2.00000
    208       2.9305      2.00000
    209       2.9305      2.00000
    210       2.9305      2.00000
    211       2.9305      2.00000
    212       2.9312      2.00000
    213       2.9321      2.00000
    214       2.9718      2.00000
    215       2.9718      2.00000
    216       2.9718      2.00000
    217       2.9718      2.00000
    218       2.9718      2.00000
    219       2.9719      2.00000
    220       2.9719      2.00000
    221       2.9719      2.00000
    222       3.5878      2.00000
    223       3.5878      2.00000
    224       3.5878      2.00000
    225       6.3230      0.00000
    226       6.3230      0.00000
    227       6.3230      0.00000
    228       7.2837      0.00000
    229       7.7889      0.00000
    230       7.7889      0.00000
    231       7.7889      0.00000
    232       8.0074      0.00000
    233       8.0075      0.00000
    234       8.0075      0.00000
    235       8.0075      0.00000
    236       8.5741      0.00000
    237       8.5754      0.00000
    238       8.5754      0.00000
    239       8.5754      0.00000
    240       8.5754      0.00000
    241       8.5767      0.00000
    242       8.8495      0.00000
    243       8.8522      0.00000
    244       8.8522      0.00000
    245       8.8522      0.00000
    246       8.8522      0.00000
    247       8.8549      0.00000
    248       9.0401      0.00000
    249       9.0409      0.00000
    250       9.0409      0.00000
    251       9.0410      0.00000
    252       9.0410      0.00000
    253       9.0418      0.00000
    254       9.1837      0.00000
    255       9.1838      0.00000
    256       9.1838      0.00000
    257       9.1843      0.00000
    258       9.1845      0.00000
    259       9.1845      0.00000
    260       9.1845      0.00000
    261       9.1846      0.00000
    262       9.1848      0.00000
    263       9.1853      0.00000
    264       9.1853      0.00000
    265       9.1853      0.00000
    266      10.4315      0.00000
    267      10.4316      0.00000
    268      10.4316      0.00000

 k-point     2 :       0.5000    0.0000    0.0000
  band No.  band energies     occupation 
      1     -37.6495      2.00000
      2     -37.6490      2.00000
      3     -37.6490      2.00000
      4     -37.6431      2.00000
      5     -37.6431      2.00000
      6     -37.6427      2.00000
      7     -37.6426      2.00000
      8     -37.6422      2.00000
      9     -37.6420      2.00000
     10     -37.6419      2.00000
     11     -37.6419      2.00000
     12     -37.6418      2.00000
     13     -37.6417      2.00000
     14     -37.6415      2.00000
     15     -37.6415      2.00000
     16     -37.6414      2.00000
     17     -37.6414      2.00000
     18     -37.6413      2.00000
     19     -37.6413      2.00000
     20     -37.6412      2.00000
     21     -37.6412      2.00000
     22     -37.6412      2.00000
     23     -37.6411      2.00000
     24     -37.6409      2.00000
     25     -37.6406      2.00000
     26     -37.6405      2.00000
     27     -37.6403      2.00000
     28     -37.6403      2.00000
     29     -37.6402      2.00000
     30     -37.6400      2.00000
     31     -37.6399      2.00000
     32     -37.6398      2.00000
     33     -37.6397      2.00000
     34     -37.6396      2.00000
     35     -37.6396      2.00000
     36     -37.6396      2.00000
     37     -37.6396      2.00000
     38     -37.6395      2.00000
     39     -37.6395      2.00000
     40     -37.6393      2.00000
     41     -37.6393      2.00000
     42     -37.6391      2.00000
     43     -37.6391      2.00000
     44     -37.6389      2.00000
     45     -37.6386      2.00000
     46     -37.6386      2.00000
     47     -37.6385      2.00000
     48     -37.6385      2.00000
     49     -37.6383      2.00000
     50     -37.6383      2.00000
     51     -37.6381      2.00000
     52     -37.6380      2.00000
     53     -37.6380      2.00000
     54     -37.6379      2.00000
     55     -37.6379      2.00000
     56     -37.6379      2.00000
     57     -37.6378      2.00000
     58     -37.6377      2.00000
     59     -37.6377      2.00000
     60     -37.6377      2.00000
     61     -37.6377      2.00000
     62     -37.6377      2.00000
     63     -37.6377      2.00000
     64     -37.6377      2.00000
     65     -37.6377      2.00000
     66     -37.6374      2.00000
     67     -37.6374      2.00000
     68     -37.6373      2.00000
     69     -37.6371      2.00000
     70     -37.6371      2.00000
     71     -37.6371      2.00000
[...]
 total augmentation occupancy for first ion, spin component:           1
  2.002   0.000   0.000   0.000   0.000   0.000   0.000   0.000   0.000   0.000   0.000   0.000   0.000
  0.000   2.002   0.000   0.000   0.000   0.000   0.000   0.000   0.000   0.000   0.000   0.000   0.000
  0.000   0.000   2.002   0.000   0.000   0.000   0.000   0.000   0.000   0.000   0.000   0.000   0.000
  0.000   0.000   0.000   0.058   0.000   0.000   0.000   0.000   0.000   0.000   0.000   0.000   0.000
  0.000   0.000   0.000   0.000   0.058   0.000   0.000   0.000   0.000   0.000   0.000   0.000   0.000
  0.000   0.000   0.000   0.000   0.000   0.058  -0.001   0.000   0.000   0.000   0.000   0.000   0.000
  0.000   0.000   0.000   0.000   0.000  -0.001   0.798   0.011   0.000   0.000   0.000   0.000  -0.001
  0.000   0.000   0.000   0.000   0.000   0.000   0.011   0.000   0.000   0.000   0.000   0.000   0.000
  0.000   0.000   0.000   0.000   0.000   0.000   0.000   0.000   0.006   0.000   0.000   0.000   0.000
  0.000   0.000   0.000   0.000   0.000   0.000   0.000   0.000   0.000   0.006   0.000   0.000   0.000
  0.000   0.000   0.000   0.000   0.000   0.000   0.000   0.000   0.000   0.000   0.029   0.000   0.000
  0.000   0.000   0.000   0.000   0.000   0.000   0.000   0.000   0.000   0.000   0.000   0.006   0.000
  0.000   0.000   0.000   0.000   0.000   0.000  -0.001   0.000   0.000   0.000   0.000   0.000   0.029


------------------------ aborting loop because EDIFF is reached ----------------------------------------


    CHARGE:  cpu time    1.01: real time    1.01
    FORLOC:  cpu time    0.06: real time    0.06
    FORNL :  cpu time   12.84: real time   12.84
    STRESS:  cpu time   19.94: real time   19.95
    FORCOR:  cpu time    0.23: real time    0.23
    FORHAR:  cpu time    0.10: real time    0.10
    MIXING:  cpu time    0.01: real time    0.01
    OFIELD:  cpu time    0.00: real time    0.00

  FORCE on cell =-STRESS in cart. coord.  units (eV):
  Direction    XX          YY          ZZ          XY          YZ          ZX
  --------------------------------------------------------------------------------------
  Alpha Z  1221.40497  1221.40497  1221.40497
  Ewald   -8347.01494 -8347.03767 -8347.03767     0.00000     0.00000     0.00000
  Hartree  3080.68614  3080.68093  3080.68093     0.00000     0.00000     0.00000
  E(xc)   -2119.95007 -2119.95005 -2119.95005     0.00000     0.00000     0.00000
  Local     -55.30543   -55.27931   -55.27931     0.00000     0.00000     0.00000
  n-local   296.93677   296.73387   297.13688     0.00000     0.00000     0.00000
  augment   260.91820   260.91827   260.91810     0.00000    -0.00005    -0.00005
  Kinetic  5662.29097  5662.66082  5661.92230     0.00000     0.00000     0.00000
  Fock        0.00000     0.00000     0.00000     0.00000     0.00000     0.00000
  -------------------------------------------------------------------------------------
  Total      -0.03337    -0.03600    -0.03600     0.00000     0.00000     0.00000
  in kB      -0.04806    -0.05184    -0.05184     0.00000     0.00000     0.00000
  external pressure =       -0.05 kB  Pullay stress =        0.00 kB


 VOLUME and BASIS-vectors are now :
 -----------------------------------------------------------------------------
  energy-cutoff  :      525.11
  volume of cell :     1112.56
      direct lattice vectors                 reciprocal lattice vectors
    10.361945660  0.000000000  0.000000000     0.096506972  0.000000000  0.000000000
     0.000000000 10.361945660  0.000000000     0.000000000  0.096506972  0.000000000
     0.000000000  0.000000000 10.361945660     0.000000000  0.000000000  0.096506972

  length of vectors
    10.361945660 10.361945660 10.361945660     0.096506972  0.096506972  0.096506972


 FORCES acting on ions
    electron-ion (+dipol)            ewald-force                    non-local-force                 convergence-correction
 -----------------------------------------------------------------------------------------------
   -.914E+00 -.986E-14 0.431E-07   0.832E+00 0.711E-14 -.499E-13   0.951E-01 0.000E+00 0.000E+00   -.888E-05 0.139E-12 -.711E-13
   -.923E+00 0.166E-13 0.432E-07   0.841E+00 0.355E-14 -.268E-13   0.962E-01 0.000E+00 0.310E-24   0.642E-05 0.178E-12 -.170E-12
   -.603E-02 0.175E-13 0.111E-10   0.734E-02 -.266E-14 0.514E-14   -.836E-03 0.000E+00 -.207E-24   -.798E-05 -.277E-12 0.256E-14
   -.567E-02 -.467E-11 0.144E-10   0.698E-02 0.178E-14 -.144E-13   -.852E-03 0.414E-24 0.000E+00   0.570E-05 -.304E-12 -.109E-12
   -.603E-02 0.337E-14 0.296E-10   0.734E-02 0.355E-14 0.979E-14   -.836E-03 0.000E+00 0.000E+00   -.798E-05 0.116E-12 -.573E-13
   -.567E-02 0.116E-13 0.278E-10   0.698E-02 0.000E+00 0.904E-15   -.852E-03 -.258E-25 -.414E-24   0.570E-05 0.863E-13 -.136E-13
   -.978E-03 0.351E-14 -.299E-12   0.982E-03 -.533E-14 -.471E-13   -.784E-05 0.000E+00 -.103E-24   -.250E-05 -.256E-12 -.138E-12
   -.815E-03 -.616E-11 0.295E-11   0.819E-03 0.000E+00 0.151E-13   -.808E-05 0.517E-25 0.000E+00   -.205E-05 -.220E-12 -.781E-13
   -.265E-01 0.701E-01 0.701E-01   0.263E-01 -.659E-01 -.659E-01   0.266E-03 -.325E-02 -.325E-02   -.102E-04 -.362E-05 -.362E-05
   -.261E-01 -.703E-01 -.703E-01   0.258E-01 0.661E-01 0.661E-01   0.258E-03 0.325E-02 0.325E-02   0.602E-05 0.589E-05 0.589E-05
   -.265E-01 -.701E-01 0.701E-01   0.263E-01 0.659E-01 -.659E-01   0.266E-03 0.325E-02 -.325E-02   -.102E-04 0.362E-05 -.362E-05
   -.261E-01 0.703E-01 -.703E-01   0.258E-01 -.661E-01 0.661E-01   0.258E-03 -.325E-02 0.325E-02   0.602E-05 -.589E-05 0.589E-05
   -.265E-01 0.701E-01 -.701E-01   0.263E-01 -.659E-01 0.659E-01   0.266E-03 -.325E-02 0.325E-02   -.102E-04 -.362E-05 0.362E-05
   -.261E-01 -.703E-01 0.703E-01   0.258E-01 0.661E-01 -.661E-01   0.258E-03 0.325E-02 -.325E-02   0.602E-05 0.589E-05 -.589E-05
   -.265E-01 -.701E-01 -.701E-01   0.263E-01 0.659E-01 0.659E-01   0.266E-03 0.325E-02 0.325E-02   -.102E-04 0.362E-05 0.362E-05
   -.261E-01 0.703E-01 0.703E-01   0.258E-01 -.661E-01 -.661E-01   0.258E-03 -.325E-02 -.325E-02   0.602E-05 -.589E-05 -.589E-05
   0.397E+00 -.254E-13 0.230E-02   -.379E+00 -.391E-13 -.227E-02   -.149E-01 0.000E+00 -.733E-04   -.181E-04 0.120E-12 0.650E-05
   -.129E+00 -.584E-14 -.234E-03   0.116E+00 -.426E-13 0.235E-03   0.101E-01 -.517E-25 -.590E-05   0.220E-04 0.129E-12 0.638E-05
   0.467E-01 -.846E-13 0.578E-04   -.452E-01 -.480E-13 -.592E-04   -.119E-02 0.414E-24 0.143E-05   -.757E-05 -.239E-12 -.346E-06
   -.404E-01 -.110E-12 -.390E-04   0.386E-01 -.551E-13 0.407E-04   0.134E-02 -.620E-24 0.347E-05   0.123E-04 -.279E-12 -.649E-05
   0.397E+00 -.156E-14 -.230E-02   -.379E+00 -.302E-13 0.227E-02   -.149E-01 -.207E-24 0.733E-04   -.181E-04 0.163E-12 -.650E-05
   -.129E+00 -.189E-13 0.234E-03   0.116E+00 -.444E-13 -.235E-03   0.101E-01 0.000E+00 0.590E-05   0.220E-04 0.191E-12 -.638E-05
   0.467E-01 0.183E-11 -.578E-04   -.452E-01 -.373E-13 0.592E-04   -.119E-02 0.207E-24 -.143E-05   -.757E-05 -.278E-12 0.346E-06
   -.404E-01 -.768E-11 0.390E-04   0.386E-01 -.586E-13 -.407E-04   0.134E-02 -.620E-24 -.347E-05   0.123E-04 -.337E-12 0.649E-05
   0.397E+00 0.230E-02 0.505E-10   -.379E+00 -.227E-02 -.233E-13   -.149E-01 -.733E-04 0.258E-24   -.181E-04 0.650E-05 -.129E-12
   -.129E+00 -.234E-03 0.444E-10   0.116E+00 0.235E-03 -.375E-13   0.101E-01 -.590E-05 0.000E+00   0.220E-04 0.638E-05 -.836E-13
   0.397E+00 -.230E-02 0.493E-10   -.379E+00 0.227E-02 0.160E-14   -.149E-01 0.733E-04 -.517E-25   -.181E-04 -.650E-05 -.846E-13
   -.129E+00 0.234E-03 0.503E-10   0.116E+00 -.235E-03 0.516E-14   0.101E-01 0.590E-05 0.103E-24   0.220E-04 -.638E-05 -.276E-13
   0.467E-01 0.578E-04 -.638E-12   -.452E-01 -.592E-04 0.347E-13   -.119E-02 0.143E-05 0.905E-25   -.757E-05 -.346E-06 -.311E-13
   -.404E-01 -.390E-04 -.666E-11   0.386E-01 0.407E-04 0.205E-13   0.134E-02 0.347E-05 0.000E+00   0.123E-04 -.649E-05 -.651E-13
   0.467E-01 -.578E-04 0.508E-13   -.452E-01 0.592E-04 -.222E-13   -.119E-02 -.143E-05 0.000E+00   -.757E-05 0.346E-06 -.718E-13
   -.404E-01 0.390E-04 -.801E-11   0.386E-01 -.407E-04 -.186E-13   0.134E-02 -.347E-05 0.414E-24   0.123E-04 0.649E-05 -.134E-12
   0.149E+01 0.170E-13 0.779E-06   -.144E+01 0.444E-13 0.146E-13   -.118E+00 0.000E+00 0.000E+00   -.166E-04 0.143E-12 -.675E-13
   -.162E+00 0.435E-13 0.113E-06   0.160E+00 0.133E-13 -.699E-14   0.433E-02 0.165E-23 -.165E-23   0.153E-04 0.160E-12 -.254E-13
   0.516E-01 0.439E-11 -.115E-10   -.506E-01 0.107E-13 0.197E-13   -.225E-02 0.103E-24 0.000E+00   -.703E-05 -.221E-12 -.146E-13
   -.423E-01 -.476E-11 -.204E-10   0.397E-01 0.249E-13 0.197E-13   0.544E-02 0.000E+00 0.331E-23   0.861E-05 -.247E-12 0.742E-14
   0.516E-01 0.331E-13 -.427E-09   -.506E-01 0.142E-13 0.311E-13   -.225E-02 -.827E-24 0.000E+00   -.703E-05 0.107E-12 -.743E-14
   -.423E-01 0.400E-13 -.441E-09   0.397E-01 0.142E-13 0.311E-13   0.544E-02 0.000E+00 0.000E+00   0.861E-05 0.124E-12 -.485E-13
   0.213E-01 0.977E-12 0.679E-12   -.209E-01 0.107E-13 0.205E-13   -.965E-03 -.827E-24 0.000E+00   -.907E-05 -.185E-12 -.629E-13
   -.199E-01 -.180E-11 -.140E-11   0.195E-01 0.178E-13 0.134E-13   0.879E-03 -.165E-23 0.000E+00   0.135E-04 -.214E-12 -.825E-13
   0.968E-01 0.289E-03 0.289E-03   -.954E-01 -.289E-03 -.289E-03   -.282E-02 -.555E-05 -.555E-05   -.786E-05 0.303E-05 0.303E-05
   -.546E-01 -.857E-04 -.857E-04   0.536E-01 0.867E-04 0.867E-04   0.206E-02 -.159E-05 -.159E-05   0.118E-04 0.451E-06 0.451E-06
   0.968E-01 -.289E-03 0.289E-03   -.954E-01 0.289E-03 -.289E-03   -.282E-02 0.555E-05 -.555E-05   -.786E-05 -.303E-05 0.303E-05
   -.546E-01 0.857E-04 -.857E-04   0.536E-01 -.867E-04 0.867E-04   0.206E-02 0.159E-05 -.159E-05   0.118E-04 -.451E-06 0.451E-06
   0.968E-01 0.289E-03 -.289E-03   -.954E-01 -.289E-03 0.289E-03   -.282E-02 -.555E-05 0.555E-05   -.786E-05 0.303E-05 -.303E-05
   -.546E-01 -.857E-04 0.857E-04   0.536E-01 0.867E-04 -.867E-04   0.206E-02 -.159E-05 0.159E-05   0.118E-04 0.451E-06 -.451E-06
   0.968E-01 -.289E-03 -.289E-03   -.954E-01 0.289E-03 0.289E-03   -.282E-02 0.555E-05 0.555E-05   -.786E-05 -.303E-05 -.303E-05
   -.546E-01 0.857E-04 0.857E-04   0.536E-01 -.867E-04 -.867E-04   0.206E-02 0.159E-05 0.159E-05   0.118E-04 -.451E-06 -.451E-06
   -.810E-01 0.306E-13 0.151E+00   0.772E-01 0.222E-13 -.146E+00   0.767E-02 0.496E-23 -.104E-01   -.904E-05 0.111E-12 0.422E-05
   -.807E-01 0.253E-13 -.152E+00   0.768E-01 0.213E-13 0.147E+00   0.769E-02 0.116E-22 0.105E-01   0.574E-05 0.114E-12 0.574E-06
   -.252E-02 0.122E-12 0.125E-01   0.255E-02 0.231E-13 -.121E-01   -.783E-04 0.000E+00 -.930E-03   -.502E-05 -.192E-12 -.386E-05
   -.233E-02 -.912E-12 -.125E-01   0.236E-02 0.284E-13 0.121E-01   -.828E-04 0.827E-24 0.931E-03   0.680E-07 -.203E-12 -.447E-06
   -.810E-01 0.303E-13 -.151E+00   0.772E-01 0.329E-13 0.146E+00   0.767E-02 0.496E-23 0.104E-01   -.904E-05 0.150E-12 -.422E-05
   -.807E-01 0.205E-13 0.152E+00   0.768E-01 0.213E-13 -.147E+00   0.769E-02 -.331E-23 -.105E-01   0.574E-05 0.152E-12 -.574E-06
   -.252E-02 0.463E-14 -.125E-01   0.255E-02 0.169E-13 0.121E-01   -.783E-04 0.000E+00 0.930E-03   -.502E-05 -.230E-12 0.386E-05
   -.233E-02 -.571E-11 0.125E-01   0.236E-02 0.249E-13 -.121E-01   -.828E-04 0.000E+00 -.931E-03   0.680E-07 -.241E-12 0.447E-06
   -.810E-01 0.151E+00 -.479E-10   0.772E-01 -.146E+00 0.145E-13   0.767E-02 -.104E-01 0.000E+00   -.904E-05 0.422E-05 -.128E-13
   -.807E-01 -.152E+00 -.434E-10   0.768E-01 0.147E+00 -.411E-14   0.769E-02 0.105E-01 0.000E+00   0.574E-05 0.574E-06 -.666E-13
   -.810E-01 -.151E+00 -.479E-10   0.772E-01 0.146E+00 0.190E-13   0.767E-02 0.104E-01 0.000E+00   -.904E-05 -.422E-05 0.255E-13
   -.807E-01 0.152E+00 -.389E-10   0.768E-01 -.147E+00 0.243E-13   0.769E-02 -.105E-01 -.662E-23   0.574E-05 -.574E-06 -.283E-13
   -.252E-02 0.125E-01 0.108E-11   0.255E-02 -.121E-01 0.423E-13   -.783E-04 -.930E-03 0.000E+00   -.502E-05 -.386E-05 -.590E-13
   -.233E-02 -.125E-01 0.177E-11   0.236E-02 0.121E-01 0.148E-13   -.828E-04 0.931E-03 0.165E-23   0.680E-07 -.447E-06 -.102E-13
   -.252E-02 -.125E-01 0.965E-12   0.255E-02 0.121E-01 -.384E-14   -.783E-04 0.930E-03 -.827E-24   -.502E-05 0.386E-05 -.990E-13
   -.233E-02 0.125E-01 0.657E-12   0.236E-02 -.121E-01 0.148E-13   -.828E-04 -.931E-03 0.000E+00   0.680E-07 0.447E-06 -.465E-13
 -----------------------------------------------------------------------------------------------
   -.121E+00 -.232E-10 0.976E-06   -.519E-14 -.834E-13 0.103E-12   0.121E+00 0.358E-17 0.759E-18   -.453E-05 -.706E-13 -.310E-12
 
 
 POSITION                                       TOTAL-FORCE (eV/Angst)
 -----------------------------------------------------------------------------------
      0.00000      0.00000      0.00000         0.013271      0.000000      0.000000
      5.18097      0.00000      0.00000         0.014443      0.000000      0.000000
      0.00000      5.18097      0.00000         0.000464      0.000000      0.000000
      5.18097      5.18097      0.00000         0.000468      0.000000      0.000000
      0.00000      0.00000      5.18097         0.000464      0.000000      0.000000
      5.18097      0.00000      5.18097         0.000468      0.000000      0.000000
      0.00000      5.18097      5.18097        -0.000006      0.000000      0.000000
      5.18097      5.18097      5.18097        -0.000006      0.000000      0.000000
      0.00000      2.59049      2.59049        -0.000018      0.000960      0.000960
      5.18097      2.59049      2.59049        -0.000014     -0.000959     -0.000959
      0.00000      7.77146      2.59049        -0.000018     -0.000960      0.000960
      5.18097      7.77146      2.59049        -0.000014      0.000959     -0.000959
      0.00000      2.59049      7.77146        -0.000018      0.000960     -0.000960
      5.18097      2.59049      7.77146        -0.000014     -0.000959      0.000959
      0.00000      7.77146      7.77146        -0.000018     -0.000960     -0.000960
      5.18097      7.77146      7.77146        -0.000014      0.000959      0.000959
      2.59049      0.00000      2.59049         0.002995      0.000000     -0.000035
      7.77146      0.00000      2.59049        -0.002654      0.000000      0.000001
      2.59049      5.18097      2.59049         0.000364      0.000000      0.000000
      7.77146      5.18097      2.59049        -0.000418      0.000000     -0.000001
      2.59049      0.00000      7.77146         0.002995      0.000000      0.000035
      7.77146      0.00000      7.77146        -0.002654      0.000000     -0.000001
      2.59049      5.18097      7.77146         0.000364      0.000000      0.000000
      7.77146      5.18097      7.77146        -0.000418      0.000000      0.000001
      2.59049      2.59049      0.00000         0.002995     -0.000035      0.000000
      7.77146      2.59049      0.00000        -0.002654      0.000001      0.000000
      2.59049      7.77146      0.00000         0.002995      0.000035      0.000000
      7.77146      7.77146      0.00000        -0.002654     -0.000001      0.000000
      2.59049      2.59049      5.18097         0.000364      0.000000      0.000000
      7.77146      2.59049      5.18097        -0.000418     -0.000001      0.000000
      2.59049      7.77146      5.18097         0.000364      0.000000      0.000000
      7.77146      7.77146      5.18097        -0.000418      0.000001      0.000000
      2.60049      0.00000      0.00000        -0.064818      0.000000      0.000000
      7.77146      0.00000      0.00000         0.002236      0.000000      0.000000
      2.59049      5.18097      0.00000        -0.001249      0.000000      0.000000
      7.77146      5.18097      0.00000         0.002902      0.000000      0.000000
      2.59049      0.00000      5.18097        -0.001249      0.000000      0.000000
      7.77146      0.00000      5.18097         0.002902      0.000000      0.000000
      2.59049      5.18097      5.18097        -0.000496      0.000000      0.000000
      7.77146      5.18097      5.18097         0.000487      0.000000      0.000000
      2.59049      2.59049      2.59049        -0.001449     -0.000003     -0.000003
      7.77146      2.59049      2.59049         0.001100      0.000000      0.000000
      2.59049      7.77146      2.59049        -0.001449      0.000003     -0.000003
      7.77146      7.77146      2.59049         0.001100      0.000000      0.000000
      2.59049      2.59049      7.77146        -0.001449     -0.000003      0.000003
      7.77146      2.59049      7.77146         0.001100      0.000000      0.000000
      2.59049      7.77146      7.77146        -0.001449      0.000003      0.000003
      7.77146      7.77146      7.77146         0.001100      0.000000      0.000000
      0.00000      0.00000      2.59049         0.003806      0.000000     -0.005786
      5.18097      0.00000      2.59049         0.003821      0.000000      0.005827
      0.00000      5.18097      2.59049        -0.000051      0.000000     -0.000549
      5.18097      5.18097      2.59049        -0.000052      0.000000      0.000551
      0.00000      0.00000      7.77146         0.003806      0.000000      0.005786
      5.18097      0.00000      7.77146         0.003821      0.000000     -0.005827
      0.00000      5.18097      7.77146        -0.000051      0.000000      0.000549
      5.18097      5.18097      7.77146        -0.000052      0.000000     -0.000551
      0.00000      2.59049      0.00000         0.003806     -0.005786      0.000000
      5.18097      2.59049      0.00000         0.003821      0.005827      0.000000
      0.00000      7.77146      0.00000         0.003806      0.005786      0.000000
      5.18097      7.77146      0.00000         0.003821     -0.005827      0.000000
      0.00000      2.59049      5.18097        -0.000051     -0.000549      0.000000
      5.18097      2.59049      5.18097        -0.000052      0.000551      0.000000
      0.00000      7.77146      5.18097        -0.000051      0.000549      0.000000
      5.18097      7.77146      5.18097        -0.000052     -0.000551      0.000000
 -----------------------------------------------------------------------------------
    total drift:                               -0.000004      0.000000      0.000001


--------------------------------------------------------------------------------------------------------



  FREE ENERGIE OF THE ION-ELECTRON SYSTEM (eV)
  ---------------------------------------------------
  free  energy   TOTEN  =      -289.83091704 eV

  energy  without entropy=     -289.83091704  energy(sigma->0) =     -289.83091704
 


--------------------------------------------------------------------------------------------------------


    POTLOK:  cpu time    0.39: real time    0.39


--------------------------------------------------------------------------------------------------------


     LOOP+:  cpu time  470.77: real time  470.88
    4ORBIT:  cpu time    0.00: real time    0.00

 total amount of memory used by VASP on root node   133595. kBytes
========================================================================

   base      :      30000. kBytes
   nonl-proj :      14059. kBytes
   fftplans  :      33043. kBytes
   grid      :      15687. kBytes
   one-center:        105. kBytes
   wavefun   :      40701. kBytes
 
  
  
 General timing and accounting informations for this job:
 ========================================================
  
                  Total CPU time used (sec):      478.605
                            User time (sec):      465.783
                          System time (sec):       12.822
                         Elapsed time (sec):      478.921
  
                   Maximum memory used (kb):      191628.
                   Average memory used (kb):           0.
  
                          Minor page faults:      6699999
                          Major page faults:            0
                 Voluntary context switches:         2097
