    8    8   20    1
  0.1738377E+02  0.5180973E-09  0.5180973E-09  0.5180973E-09  0.5000000E-15
  1.000000000000000E-004
  CAR 
 unknown system                          
     56     10     36
 
  0.0000000E+00  0.0000000E+00  0.0000000E+00  0.1562500E-01
    1      -37.642375
    2      -37.642375
    3      -37.642375
    4      -37.638477
    5      -37.638477
    6      -37.638477
    7      -37.638477
    8      -37.638477
    9      -37.638477
   10      -37.635573
   11      -37.635573
   12      -37.635573
   13       -9.173150
   14       -7.424260
   15       -7.424260
   16       -7.424260
   17       -0.731762
   18       -0.731762
   19       -0.731762
   20        1.853885
   21        1.853885
   22        1.853885
   23        1.853885
   24        1.853885
   25        1.853885
   26        3.587800
   27        3.587800
   28        3.587800
   29        6.323015
   30        6.323015
   31        6.323015
   32        7.283698
   33        7.788899
   34        7.788899
   35        7.788899
   36       11.431134
 
  0.2500000E+00  0.0000000E+00  0.0000000E+00  0.9375000E-01
    1      -37.641844
    2      -37.641844
    3      -37.641501
    4      -37.639095
    5      -37.639095
    6      -37.638614
    7      -37.638614
    8      -37.638109
    9      -37.638109
   10      -37.636563
   11      -37.636015
   12      -37.636015
   13       -8.964367
   14       -7.745585
   15       -7.398988
   16       -7.398988
   17       -0.475731
   18       -0.475731
   19       -0.251254
   20        1.260057
   21        1.260057
   22        1.469196
   23        1.469196
   24        2.049535
   25        2.049535
   26        2.552282
   27        3.250103
   28        3.250103
   29        6.967242
   30        7.361626
   31        7.361626
   32        8.108131
   33        8.444878
   34        8.923221
   35        8.923221
   36       10.441094
 
  0.5000000E+00  0.0000000E+00  0.0000000E+00  0.4687500E-01
    1      -37.640460
    2      -37.640460
    3      -37.640460
    4      -37.640460
    5      -37.639205
    6      -37.639205
    7      -37.638539
    8      -37.638539
    9      -37.637068
   10      -37.637068
   11      -37.637068
   12      -37.637068
   13       -8.407711
   14       -8.407711
   15       -7.373259
   16       -7.373259
   17        0.253294
   18        0.253294
   19        0.253294
   20        0.253294
   21        0.968939
   22        0.968939
   23        1.156359
   24        1.156359
   25        2.584266
   26        2.584266
   27        2.584266
   28        2.584266
   29        8.575436
   30        8.575436
   31        8.852231
   32        8.852231
   33        9.040939
   34        9.040939
   35       11.449231
   36       11.450082
 
  0.2500000E+00  0.2500000E+00  0.0000000E+00  0.1875000E+00
    1      -37.641456
    2      -37.641456
    3      -37.641302
    4      -37.640019
    5      -37.638651
    6      -37.638651
    7      -37.638076
    8      -37.637933
    9      -37.637867
   10      -37.637867
   11      -37.636492
   12      -37.635701
   13       -8.768706
   14       -7.670230
   15       -7.670230
   16       -7.421448
   17       -0.275268
   18       -0.275268
   19       -0.223109
   20        0.305114
   21        1.477109
   22        1.477109
   23        1.592711
   24        1.944477
   25        1.944477
   26        2.180617
   27        2.845999
   28        3.474162
   29        7.426764
   30        7.908752
   31        7.908752
   32        8.948418
   33        9.194793
   34        9.194793
   35       10.207992
   36       10.681308
 
  0.5000000E+00  0.2500000E+00  0.0000000E+00  0.1875000E+00
    1      -37.640999
    2      -37.640999
    3      -37.640118
    4      -37.640118
    5      -37.639926
    6      -37.639926
    7      -37.637586
    8      -37.637586
    9      -37.637516
   10      -37.637516
   11      -37.636583
   12      -37.636583
   13       -8.256166
   14       -8.256166
   15       -7.519013
   16       -7.519013
   17       -0.225578
   18       -0.225578
   19        0.436669
   20        0.436669
   21        0.494134
   22        0.494134
   23        2.077417
   24        2.077417
   25        2.085421
   26        2.085421
   27        2.884207
   28        2.884207
   29        8.800704
   30        8.800704
   31        9.374950
   32        9.374950
   33        9.942754
   34        9.942754
   35       10.617064
   36       10.632943
 
  0.5000000E+00  0.5000000E+00  0.0000000E+00  0.4687500E-01
    1      -37.641138
    2      -37.641138
    3      -37.641138
    4      -37.641138
    5      -37.638807
    6      -37.638807
    7      -37.638807
    8      -37.638807
    9      -37.636722
   10      -37.636722
   11      -37.636722
   12      -37.636722
   13       -7.885630
   14       -7.885630
   15       -7.885630
   16       -7.885630
   17       -0.209109
   18       -0.209109
   19       -0.209109
   20       -0.209109
   21        1.171605
   22        1.171605
   23        1.171605
   24        1.171605
   25        2.930465
   26        2.930465
   27        2.930465
   28        2.930465
   29        9.184541
   30        9.184541
   31        9.184541
   32        9.184541
   33       11.200105
   34       11.202827
   35       11.211616
   36       11.275815
 
  0.2500000E+00  0.2500000E+00  0.2500000E+00  0.1250000E+00
    1      -37.641839
    2      -37.641839
    3      -37.641839
    4      -37.639482
    5      -37.638640
    6      -37.638640
    7      -37.638640
    8      -37.637661
    9      -37.637661
   10      -37.637661
   11      -37.636111
   12      -37.636111
   13       -8.589192
   14       -7.636059
   15       -7.636059
   16       -7.636059
   17       -0.568997
   18       -0.568997
   19       -0.568997
   20        0.706325
   21        1.302879
   22        1.302879
   23        1.302879
   24        2.342125
   25        2.342125
   26        2.342125
   27        3.251190
   28        3.251190
   29        7.924525
   30        7.924525
   31        7.924525
   32        8.464615
   33       10.260434
   34       10.260434
   35       10.260434
   36       11.341887
 
  0.5000000E+00  0.2500000E+00  0.2500000E+00  0.1875000E+00
    1      -37.642117
    2      -37.642117
    3      -37.641300
    4      -37.641300
    5      -37.638576
    6      -37.638576
    7      -37.637282
    8      -37.637282
    9      -37.636912
   10      -37.636912
   11      -37.636849
   12      -37.636849
   13       -8.130856
   14       -8.130856
   15       -7.600993
   16       -7.600993
   17       -0.840468
   18       -0.840468
   19       -0.264993
   20       -0.264993
   21        1.373884
   22        1.373884
   23        2.394725
   24        2.394725
   25        2.635752
   26        2.635752
   27        2.766426
   28        2.766426
   29        8.778740
   30        8.778740
   31        9.124075
   32        9.124075
   33        9.603769
   34        9.603769
   35       10.157628
   36       10.157628
 
  0.5000000E+00  0.5000000E+00  0.2500000E+00  0.9375000E-01
    1      -37.642380
    2      -37.642380
    3      -37.642380
    4      -37.642380
    5      -37.637459
    6      -37.637459
    7      -37.637459
    8      -37.637459
    9      -37.636667
   10      -37.636667
   11      -37.636667
   12      -37.636667
   13       -7.844748
   14       -7.844748
   15       -7.844748
   16       -7.844748
   17       -0.939465
   18       -0.939465
   19       -0.939465
   20       -0.939465
   21        2.179636
   22        2.179636
   23        2.179636
   24        2.179636
   25        2.950962
   26        2.950962
   27        2.950962
   28        2.950962
   29        8.826247
   30        8.826247
   31        8.826247
   32        8.826247
   33       10.026471
   34       10.026471
   35       10.026471
   36       10.026471
 
  0.5000000E+00  0.5000000E+00  0.5000000E+00  0.1562500E-01
    1      -37.643300
    2      -37.643300
    3      -37.643300
    4      -37.643300
    5      -37.636731
    6      -37.636731
    7      -37.636731
    8      -37.636731
    9      -37.636731
   10      -37.636731
   11      -37.636731
   12      -37.636731
   13       -7.802467
   14       -7.802467
   15       -7.802467
   16       -7.802467
   17       -1.377193
   18       -1.377193
   19       -1.377193
   20       -1.377193
   21        2.971822
   22        2.971822
   23        2.971822
   24        2.971822
   25        2.971822
   26        2.971822
   27        2.971822
   28        2.971822
   29        8.007462
   30        8.007462
   31        8.007462
   32        8.007462
   33       10.431568
   34       10.431568
   35       10.431568
   36       10.431568
