<?xml version="1.0" encoding="ISO-8859-1"?>
<modeling>
 <generator>
  <i name="program" type="string">vasp </i>
  <i name="version" type="string">5.3.5  </i>
  <i name="subversion" type="string">31Mar14 (build Nov 07 2014 11:36:17) complex                          parallel </i>
  <i name="platform" type="string">LinuxIFC </i>
  <i name="date" type="string">2015 10 15 </i>
  <i name="time" type="string">01:05:32 </i>
 </generator>
 <incar>
  <i type="string" name="PREC">accurate</i>
  <i type="int" name="IALGO">    38</i>
  <i type="logical" name="ADDGRID"> T  </i>
  <i type="int" name="NELMIN">     5</i>
  <i type="int" name="IBRION">     2</i>
  <i name="EDIFF">      0.00000001</i>
  <i name="EDIFFG">     -0.00000001</i>
  <i type="int" name="NSW">    20</i>
  <i type="int" name="ISIF">     4</i>
  <i name="ENCUT">    525.10770000</i>
  <i type="logical" name="LREAL"> F  </i>
  <i type="int" name="ISMEAR">     0</i>
  <i name="SIGMA">      0.01000000</i>
  <i type="logical" name="LWAVE"> F  </i>
  <i type="logical" name="LCHARG"> F  </i>
  <i type="string" name="GGA"> PS</i>
 </incar>
 <kpoints>
  <generation param="Gamma">
   <v type="int" name="divisions">       4        4        4 </v>
   <v name="usershift">      0.00000000       0.00000000       0.00000000 </v>
   <v name="genvec1">      0.25000000       0.00000000       0.00000000 </v>
   <v name="genvec2">      0.00000000       0.25000000       0.00000000 </v>
   <v name="genvec3">      0.00000000       0.00000000       0.25000000 </v>
   <v name="shift">      0.00000000       0.00000000       0.00000000 </v>
  </generation>
  <varray name="kpointlist" >
   <v>       0.00000000       0.00000000       0.00000000 </v>
   <v>       0.25000000       0.00000000       0.00000000 </v>
   <v>       0.50000000       0.00000000       0.00000000 </v>
   <v>       0.25000000       0.25000000       0.00000000 </v>
   <v>       0.50000000       0.25000000       0.00000000 </v>
   <v>       0.50000000       0.50000000       0.00000000 </v>
   <v>       0.25000000       0.25000000       0.25000000 </v>
   <v>       0.50000000       0.25000000       0.25000000 </v>
   <v>       0.50000000       0.50000000       0.25000000 </v>
   <v>       0.50000000       0.50000000       0.50000000 </v>
  </varray>
  <varray name="weights" >
   <v>       0.01562500 </v>
   <v>       0.09375000 </v>
   <v>       0.04687500 </v>
   <v>       0.18750000 </v>
   <v>       0.18750000 </v>
   <v>       0.04687500 </v>
   <v>       0.12500000 </v>
   <v>       0.18750000 </v>
   <v>       0.09375000 </v>
   <v>       0.01562500 </v>
  </varray>
 </kpoints>
 <parameters>
  <separator name="general" >
   <i type="string" name="SYSTEM">unknown system</i>
   <i type="logical" name="LCOMPAT"> F  </i>
  </separator>
  <separator name="electronic" >
   <i type="string" name="PREC">accura</i>
   <i name="ENMAX">    525.10770000</i>
   <i name="ENAUG">    758.78000000</i>
   <i name="EDIFF">      0.00000001</i>
   <i type="int" name="IALGO">    38</i>
   <i type="int" name="IWAVPR">    11</i>
   <i type="int" name="NBANDS">    36</i>
   <i name="NELECT">     56.00000000</i>
   <i type="int" name="TURBO">     0</i>
   <i type="int" name="IRESTART">     0</i>
   <i type="int" name="NREBOOT">     0</i>
   <i type="int" name="NMIN">     0</i>
   <i name="EREF">      0.00000000</i>
   <separator name="electronic smearing" >
    <i type="int" name="ISMEAR">     0</i>
    <i name="SIGMA">      0.01000000</i>
    <i name="KSPACING">      0.50000000</i>
    <i type="logical" name="KGAMMA"> T  </i>
   </separator>
   <separator name="electronic projectors" >
    <i type="logical" name="LREAL"> F  </i>
    <v name="ROPT">      0.00000000      0.00000000</v>
    <i type="int" name="LMAXPAW">  -100</i>
    <i type="int" name="LMAXMIX">     2</i>
    <i type="logical" name="NLSPLINE"> F  </i>
   </separator>
   <separator name="electronic startup" >
    <i type="int" name="ISTART">     0</i>
    <i type="int" name="ICHARG">     2</i>
    <i type="int" name="INIWAV">     1</i>
   </separator>
   <separator name="electronic spin" >
    <i type="int" name="ISPIN">     1</i>
    <i type="logical" name="LNONCOLLINEAR"> F  </i>
    <v name="MAGMOM">      1.00000000      1.00000000      1.00000000      1.00000000      1.00000000      1.00000000      1.00000000      1.00000000</v>
    <i name="NUPDOWN">     -1.00000000</i>
    <i type="logical" name="LSORBIT"> F  </i>
    <v name="SAXIS">      0.00000000      0.00000000      1.00000000</v>
    <i type="logical" name="LSPIRAL"> F  </i>
    <v name="QSPIRAL">      0.00000000      0.00000000      0.00000000</v>
    <i type="logical" name="LZEROZ"> F  </i>
   </separator>
   <separator name="electronic exchange-correlation" >
    <i type="logical" name="LASPH"> F  </i>
    <i type="logical" name="LMETAGGA"> F  </i>
   </separator>
   <separator name="electronic convergence" >
    <i type="int" name="NELM">    60</i>
    <i type="int" name="NELMDL">    -5</i>
    <i type="int" name="NELMIN">     5</i>
    <i name="ENINI">    525.10770000</i>
    <separator name="electronic convergence detail" >
     <i type="logical" name="LDIAG"> T  </i>
     <i type="logical" name="LSUBROT"> F  </i>
     <i name="WEIMIN">      0.00100000</i>
     <i name="EBREAK">      0.00000000</i>
     <i name="DEPER">      0.30000000</i>
     <i type="int" name="NRMM">     4</i>
     <i name="TIME">      0.40000000</i>
    </separator>
   </separator>
   <separator name="electronic mixer" >
    <i name="AMIX">      0.40000000</i>
    <i name="BMIX">      1.00000000</i>
    <i name="AMIN">      0.10000000</i>
    <i name="AMIX_MAG">      1.60000000</i>
    <i name="BMIX_MAG">      1.00000000</i>
    <separator name="electronic mixer details" >
     <i type="int" name="IMIX">     4</i>
     <i type="int" name="MAXMIX">   -45</i>
     <i name="WC">    100.00000000</i>
     <i type="int" name="INIMIX">     1</i>
     <i type="int" name="MIXPRE">     1</i>
     <i type="int" name="MREMOVE">     5</i>
    </separator>
   </separator>
   <separator name="electronic dipolcorrection" >
    <i type="logical" name="LDIPOL"> F  </i>
    <i type="logical" name="LMONO"> F  </i>
    <i type="int" name="IDIPOL">     0</i>
    <i name="EPSILON">      1.00000000</i>
    <v name="DIPOL">   -100.00000000   -100.00000000   -100.00000000</v>
    <i name="EFIELD">      0.00000000</i>
   </separator>
  </separator>
  <separator name="grids" >
   <i type="int" name="NGX">    40</i>
   <i type="int" name="NGY">    40</i>
   <i type="int" name="NGZ">    40</i>
   <i type="int" name="NGXF">    80</i>
   <i type="int" name="NGYF">    80</i>
   <i type="int" name="NGZF">    80</i>
   <i type="logical" name="ADDGRID"> T  </i>
  </separator>
  <separator name="ionic" >
   <i type="int" name="NSW">    20</i>
   <i type="int" name="IBRION">     2</i>
   <i type="int" name="ISIF">     4</i>
   <i name="PSTRESS">      0.00000000</i>
   <i name="EDIFFG">     -0.00000001</i>
   <i type="int" name="NFREE">     1</i>
   <i name="POTIM">      0.50000000</i>
   <i name="SMASS">     -3.00000000</i>
   <i name="SCALEE">      1.00000000</i>
  </separator>
  <separator name="ionic md" >
   <i name="TEBEG">      0.00010000</i>
   <i name="TEEND">      0.00010000</i>
   <i type="int" name="NBLOCK">     1</i>
   <i type="int" name="KBLOCK">    20</i>
   <i type="int" name="NPACO">   256</i>
   <i name="APACO">     16.00000000</i>
  </separator>
  <separator name="symmetry" >
   <i type="int" name="ISYM">     2</i>
   <i name="SYMPREC">      0.00001000</i>
  </separator>
  <separator name="dos" >
   <i type="logical" name="LORBIT"> F  </i>
   <v name="RWIGS">     -1.00000000     -1.00000000</v>
   <i type="int" name="NEDOS">   301</i>
   <i name="EMIN">     10.00000000</i>
   <i name="EMAX">    -10.00000000</i>
   <i name="EFERMI">      0.00000000</i>
  </separator>
  <separator name="writing" >
   <i type="int" name="NWRITE">     2</i>
   <i type="logical" name="LWAVE"> F  </i>
   <i type="logical" name="LCHARG"> F  </i>
   <i type="logical" name="LPARD"> F  </i>
   <i type="logical" name="LVTOT"> F  </i>
   <i type="logical" name="LVHAR"> F  </i>
   <i type="logical" name="LELF"> F  </i>
   <i type="logical" name="LOPTICS"> F  </i>
   <v name="STM">      0.00000000      0.00000000      0.00000000      0.00000000      0.00000000      0.00000000      0.00000000</v>
  </separator>
  <separator name="performance" >
   <i type="int" name="NPAR">     4</i>
   <i type="int" name="NSIM">     4</i>
   <i type="int" name="NBLK">    -1</i>
   <i type="logical" name="LPLANE"> T  </i>
   <i type="logical" name="LSCALAPACK"> T  </i>
   <i type="logical" name="LSCAAWARE"> F  </i>
   <i type="logical" name="LSCALU"> F  </i>
   <i type="logical" name="LASYNC"> F  </i>
   <i type="logical" name="LORBITALREAL"> F  </i>
  </separator>
  <separator name="miscellaneous" >
   <i type="int" name="IDIOT">     3</i>
   <i type="logical" name="LMUSIC"> F  </i>
   <v name="POMASS">     24.30500000     32.06600000</v>
   <v name="DARWINR">      0.00000000      0.00000000</v>
   <v name="DARWINV">      1.00000000      1.00000000</v>
   <i type="logical" name="LCORR"> T  </i>
  </separator>
  <i type="logical" name="GGA_COMPAT"> T  </i>
  <i type="logical" name="LBERRY"> F  </i>
  <i type="int" name="ICORELEVEL">     0</i>
  <i type="logical" name="LDAU"> F  </i>
  <i type="int" name="I_CONSTRAINED_M">     0</i>
  <separator name="electronic exchange-correlation" >
   <i type="string" name="GGA">PS</i>
   <i type="int" name="VOSKOWN">     0</i>
   <i type="logical" name="LHFCALC"> F  </i>
   <i type="string" name="PRECFOCK"></i>
   <i type="logical" name="LSYMGRAD"> F  </i>
   <i type="logical" name="LHFONE"> F  </i>
   <i type="logical" name="LRHFCALC"> F  </i>
   <i type="logical" name="LTHOMAS"> F  </i>
   <i type="logical" name="LMODELHF"> F  </i>
   <i name="ENCUT4O">     -1.00000000</i>
   <i type="int" name="EXXOEP">     0</i>
   <i type="int" name="FOURORBIT">     0</i>
   <i name="AEXX">      0.00000000</i>
   <i name="HFALPHA">      0.00000000</i>
   <i name="MCALPHA">      0.00000000</i>
   <i name="ALDAX">      1.00000000</i>
   <i name="AGGAX">      1.00000000</i>
   <i name="ALDAC">      1.00000000</i>
   <i name="AGGAC">      1.00000000</i>
   <i type="int" name="NKREDX">     1</i>
   <i type="int" name="NKREDY">     1</i>
   <i type="int" name="NKREDZ">     1</i>
   <i type="logical" name="SHIFTRED"> F  </i>
   <i type="logical" name="ODDONLY"> F  </i>
   <i type="logical" name="EVENONLY"> F  </i>
   <i type="int" name="LMAXFOCK">     0</i>
   <i type="int" name="NMAXFOCKAE">     0</i>
   <i type="logical" name="LFOCKAEDFT"> F  </i>
   <i name="HFSCREEN">      0.00000000</i>
   <i name="HFSCREENC">      0.00000000</i>
   <i type="int" name="NBANDSGWLOW">     0</i>
  </separator>
  <separator name="vdW DFT" >
   <i type="logical" name="LUSE_VDW"> F  </i>
   <i name="Zab_VDW">     -0.84910000</i>
   <i name="PARAM1">      0.12340000</i>
   <i name="PARAM2">      1.00000000</i>
   <i name="PARAM3">      0.00000000</i>
  </separator>
  <separator name="model GW" >
   <i type="int" name="MODEL_GW">     0</i>
   <i name="MODEL_EPS0">     10.43026176</i>
   <i name="MODEL_ALPHA">      1.00000000</i>
  </separator>
  <separator name="linear response parameters" >
   <i type="logical" name="LEPSILON"> F  </i>
   <i type="logical" name="LRPA"> F  </i>
   <i type="logical" name="LNABLA"> F  </i>
   <i type="logical" name="LVEL"> F  </i>
   <i type="int" name="KINTER">     0</i>
   <i name="CSHIFT">      0.10000000</i>
   <i name="OMEGAMAX">     -1.00000000</i>
   <i name="DEG_THRESHOLD">      0.00200000</i>
  </separator>
  <separator name="orbital magnetization" >
   <i type="logical" name="NUCIND"> F  </i>
   <v name="MAGPOS">      0.00000000      0.00000000      0.00000000</v>
   <i type="logical" name="LNICSALL"> T  </i>
   <i type="logical" name="ORBITALMAG"> F  </i>
   <i type="logical" name="LMAGBLOCH"> F  </i>
   <i type="logical" name="LCHIMAG"> F  </i>
   <i type="logical" name="LGAUGE"> T  </i>
   <i type="int" name="MAGATOM">     0</i>
   <v name="MAGDIPOL">      0.00000000      0.00000000      0.00000000</v>
   <v name="AVECCONST">      0.00000000      0.00000000      0.00000000</v>
  </separator>
  <separator name="response functions" >
   <i type="logical" name="LADDER"> F  </i>
   <i type="logical" name="LFXC"> F  </i>
   <i type="logical" name="LHARTREE"> T  </i>
   <i type="int" name="IBSE">     0</i>
   <i type="logical" name="LTCTE"> F  </i>
   <i type="logical" name="LTETE"> F  </i>
   <i type="logical" name="LTRIPLET"> F  </i>
   <i type="logical" name="LFXCEPS"> F  </i>
   <i type="logical" name="LFXHEG"> F  </i>
   <i type="logical" name="L2ORDER"> F  </i>
   <i type="logical" name="LUSEW"> F  </i>
   <i name="ENCUTGW">     -2.00000000</i>
   <i name="ENCUTGWSOFT">     -2.00000000</i>
   <i name="ENCUTLF">     -1.00000000</i>
   <i type="int" name="LMAXMP2">    -1</i>
   <i name="SCISSOR">      0.00000000</i>
   <i type="int" name="NOMEGA">     0</i>
   <i type="int" name="NOMEGAR">     0</i>
   <i type="int" name="NBANDSGW">    -1</i>
   <i type="int" name="NBANDSO">    -1</i>
   <i type="int" name="NBANDSV">    -1</i>
   <i type="int" name="NELM">     1</i>
   <i type="int" name="DIM">     3</i>
   <i type="int" name="ANTIRES">     0</i>
   <i name="OMEGAMAX">    -30.00000000</i>
   <i name="OMEGAMIN">    -30.00000000</i>
   <i name="OMEGATL">   -200.00000000</i>
   <i type="int" name="OMEGAGRID">     0</i>
   <i name="CSHIFT">     -0.10000000</i>
   <i type="logical" name="SELFENERGY"> F  </i>
   <i type="logical" name="LSPECTRAL"> F  </i>
   <i type="logical" name="ODDONLYGW"> F  </i>
   <i type="logical" name="EVENONLYGW"> F  </i>
   <i type="int" name="NKREDLFX">     1</i>
   <i type="int" name="NKREDLFY">     1</i>
   <i type="int" name="NKREDLFZ">     1</i>
   <i type="int" name="MAXMEM">  1800</i>
   <i type="int" name="TELESCOPE">     0</i>
   <i type="int" name="TAUPAR">     1</i>
  </separator>
  <separator name="External order field" >
   <i name="OFIELD_KAPPA">      0.00000000</i>
   <v name="OFIELD_K">      0.00000000      0.00000000      0.00000000</v>
   <i name="OFIELD_Q6_NEAR">      0.00000000</i>
   <i name="OFIELD_Q6_FAR">      0.00000000</i>
   <i name="OFIELD_A">      0.00000000</i>
  </separator>
 </parameters>
 <atominfo>
  <atoms>       8 </atoms>
  <types>       2 </types>
  <array name="atoms" >
   <dimension dim="1">ion</dimension>
   <field type="string">element</field>
   <field type="int">atomtype</field>
   <set>
    <rc><c>Mg</c><c>   1</c></rc>
    <rc><c>Mg</c><c>   1</c></rc>
    <rc><c>Mg</c><c>   1</c></rc>
    <rc><c>Mg</c><c>   1</c></rc>
    <rc><c>S </c><c>   2</c></rc>
    <rc><c>S </c><c>   2</c></rc>
    <rc><c>S </c><c>   2</c></rc>
    <rc><c>S </c><c>   2</c></rc>
   </set>
  </array>
  <array name="atomtypes" >
   <dimension dim="1">type</dimension>
   <field type="int">atomspertype</field>
   <field type="string">element</field>
   <field>mass</field>
   <field>valence</field>
   <field type="string">pseudopotential</field>
   <set>
    <rc><c>   4</c><c>Mg</c><c>     24.30500000</c><c>      8.00000000</c><c>  PAW_PBE Mg_pv 13Apr2007               </c></rc>
    <rc><c>   4</c><c>S </c><c>     32.06600000</c><c>      6.00000000</c><c>  PAW_PBE S 06Sep2000                   </c></rc>
   </set>
  </array>
 </atominfo>
 <structure name="initialpos" >
  <crystal>
   <varray name="basis" >
    <v>       5.18097283       0.00000000       0.00000000 </v>
    <v>       0.00000000       5.18097283       0.00000000 </v>
    <v>       0.00000000       0.00000000       5.18097283 </v>
   </varray>
   <i name="volume">    139.07015680 </i>
   <varray name="rec_basis" >
    <v>       0.19301394       0.00000000       0.00000000 </v>
    <v>       0.00000000       0.19301394       0.00000000 </v>
    <v>       0.00000000       0.00000000       0.19301394 </v>
   </varray>
  </crystal>
  <varray name="positions" >
   <v>       0.00000000       0.00000000       0.00000000 </v>
   <v>       0.00000000       0.50000000       0.50000000 </v>
   <v>       0.50000000       0.00000000       0.50000000 </v>
   <v>       0.50000000       0.50000000       0.00000000 </v>
   <v>       0.50000000       0.00000000       0.00000000 </v>
   <v>       0.50000000       0.50000000       0.50000000 </v>
   <v>       0.00000000       0.00000000       0.50000000 </v>
   <v>       0.00000000       0.50000000       0.00000000 </v>
  </varray>
 </structure>
 <calculation>
  <scstep>
   <time name="dav">    0.29    0.29</time>
   <time name="total">    0.35    0.35</time>
   <energy>
    <i name="alphaZ">    152.67562175 </i>
    <i name="ewald">  -3130.11818085 </i>
    <i name="hartreedc">  -1164.30183299 </i>
    <i name="XCdc">    159.38894108 </i>
    <i name="pawpsdc">   3462.71711756 </i>
    <i name="pawaedc">  -3919.80126840 </i>
    <i name="eentropy">     -0.00070524 </i>
    <i name="bandstr">   -424.25317752 </i>
    <i name="atom">   5321.70543053 </i>
    <i name="e_fr_energy">    458.01194591 </i>
    <i name="e_wo_entrp">    458.01265115 </i>
    <i name="e_0_energy">    458.01229853 </i>
   </energy>
  </scstep>
  <scstep>
   <time name="dav">    0.26    0.26</time>
   <time name="total">    0.26    0.27</time>
   <energy>
    <i name="e_fr_energy">     -4.06816011 </i>
    <i name="e_wo_entrp">     -4.06816011 </i>
    <i name="e_0_energy">     -4.06816011 </i>
   </energy>
  </scstep>
  <scstep>
   <time name="dav">    0.26    0.26</time>
   <time name="total">    0.26    0.26</time>
   <energy>
    <i name="e_fr_energy">    -36.66836907 </i>
    <i name="e_wo_entrp">    -36.66836907 </i>
    <i name="e_0_energy">    -36.66836907 </i>
   </energy>
  </scstep>
  <scstep>
   <time name="dav">    0.26    0.26</time>
   <time name="total">    0.27    0.27</time>
   <energy>
    <i name="e_fr_energy">    -37.68218955 </i>
    <i name="e_wo_entrp">    -37.68218955 </i>
    <i name="e_0_energy">    -37.68218955 </i>
   </energy>
  </scstep>
  <scstep>
   <time name="dav">    0.27    0.27</time>
   <time name="total">    0.33    0.33</time>
   <energy>
    <i name="e_fr_energy">    -37.71084115 </i>
    <i name="e_wo_entrp">    -37.71084115 </i>
    <i name="e_0_energy">    -37.71084115 </i>
   </energy>
  </scstep>
  <scstep>
   <time name="dav">    0.24    0.24</time>
   <time name="total">    0.35    0.35</time>
   <energy>
    <i name="e_fr_energy">    -36.39497506 </i>
    <i name="e_wo_entrp">    -36.39497506 </i>
    <i name="e_0_energy">    -36.39497506 </i>
   </energy>
  </scstep>
  <scstep>
   <time name="dav">    0.27    0.27</time>
   <time name="total">    0.38    0.38</time>
   <energy>
    <i name="e_fr_energy">    -36.23594408 </i>
    <i name="e_wo_entrp">    -36.23594408 </i>
    <i name="e_0_energy">    -36.23594408 </i>
   </energy>
  </scstep>
  <scstep>
   <time name="dav">    0.25    0.25</time>
   <time name="total">    0.35    0.36</time>
   <energy>
    <i name="e_fr_energy">    -36.22929340 </i>
    <i name="e_wo_entrp">    -36.22929340 </i>
    <i name="e_0_energy">    -36.22929340 </i>
   </energy>
  </scstep>
  <scstep>
   <time name="dav">    0.27    0.27</time>
   <time name="total">    0.37    0.38</time>
   <energy>
    <i name="e_fr_energy">    -36.22848580 </i>
    <i name="e_wo_entrp">    -36.22848580 </i>
    <i name="e_0_energy">    -36.22848580 </i>
   </energy>
  </scstep>
  <scstep>
   <time name="dav">    0.28    0.28</time>
   <time name="total">    0.38    0.39</time>
   <energy>
    <i name="e_fr_energy">    -36.22851453 </i>
    <i name="e_wo_entrp">    -36.22851453 </i>
    <i name="e_0_energy">    -36.22851453 </i>
   </energy>
  </scstep>
  <scstep>
   <time name="dav">    0.25    0.25</time>
   <time name="total">    0.36    0.36</time>
   <energy>
    <i name="e_fr_energy">    -36.22851021 </i>
    <i name="e_wo_entrp">    -36.22851021 </i>
    <i name="e_0_energy">    -36.22851021 </i>
   </energy>
  </scstep>
  <scstep>
   <time name="dav">    0.27    0.28</time>
   <time name="total">    0.38    0.38</time>
   <energy>
    <i name="e_fr_energy">    -36.22850958 </i>
    <i name="e_wo_entrp">    -36.22850958 </i>
    <i name="e_0_energy">    -36.22850958 </i>
   </energy>
  </scstep>
  <scstep>
   <time name="dav">    0.27    0.27</time>
   <time name="total">    0.38    0.38</time>
   <energy>
    <i name="e_fr_energy">    -36.22850953 </i>
    <i name="e_wo_entrp">    -36.22850953 </i>
    <i name="e_0_energy">    -36.22850953 </i>
   </energy>
  </scstep>
  <scstep>
   <time name="dav">    0.25    0.25</time>
   <time name="total">    0.36    0.36</time>
   <energy>
    <i name="e_fr_energy">    -36.22850949 </i>
    <i name="e_wo_entrp">    -36.22850949 </i>
    <i name="e_0_energy">    -36.22850949 </i>
   </energy>
  </scstep>
  <scstep>
   <time name="dav">    0.23    0.23</time>
   <time name="total">    0.34    0.34</time>
   <energy>
    <i name="e_fr_energy">    -36.22850953 </i>
    <i name="e_wo_entrp">    -36.22850953 </i>
    <i name="e_0_energy">    -36.22850953 </i>
   </energy>
  </scstep>
  <scstep>
   <time name="dav">    0.17    0.17</time>
   <time name="total">    0.21    0.22</time>
   <energy>
    <i name="alphaZ">    152.67562175 </i>
    <i name="ewald">  -3130.11818085 </i>
    <i name="hartreedc">  -1155.25498469 </i>
    <i name="XCdc">    161.41006376 </i>
    <i name="pawpsdc">   4678.48657502 </i>
    <i name="pawaedc">  -5131.47129373 </i>
    <i name="eentropy">      0.00000000 </i>
    <i name="bandstr">   -933.66174131 </i>
    <i name="atom">   5321.70543053 </i>
    <i name="e_fr_energy">    -36.22850952 </i>
    <i name="e_wo_entrp">    -36.22850952 </i>
    <i name="e_0_energy">    -36.22850952 </i>
   </energy>
  </scstep>
  <structure>
   <crystal>
    <varray name="basis" >
     <v>       5.18097283       0.00000000       0.00000000 </v>
     <v>       0.00000000       5.18097283       0.00000000 </v>
     <v>       0.00000000       0.00000000       5.18097283 </v>
    </varray>
    <i name="volume">    139.07015680 </i>
    <varray name="rec_basis" >
     <v>       0.19301394       0.00000000       0.00000000 </v>
     <v>       0.00000000       0.19301394       0.00000000 </v>
     <v>       0.00000000       0.00000000       0.19301394 </v>
    </varray>
   </crystal>
   <varray name="positions" >
    <v>       0.00000000       0.00000000       0.00000000 </v>
    <v>       0.00000000       0.50000000       0.50000000 </v>
    <v>       0.50000000       0.00000000       0.50000000 </v>
    <v>       0.50000000       0.50000000       0.00000000 </v>
    <v>       0.50000000       0.00000000       0.00000000 </v>
    <v>       0.50000000       0.50000000       0.50000000 </v>
    <v>       0.00000000       0.00000000       0.50000000 </v>
    <v>       0.00000000       0.50000000       0.00000000 </v>
   </varray>
  </structure>
  <varray name="forces" >
   <v>       0.00000000       0.00000000       0.00000000 </v>
   <v>       0.00000000       0.00000000       0.00000000 </v>
   <v>       0.00000000       0.00000000       0.00000000 </v>
   <v>       0.00000000       0.00000000       0.00000000 </v>
   <v>       0.00000000       0.00000000       0.00000000 </v>
   <v>       0.00000000       0.00000000       0.00000000 </v>
   <v>       0.00000000       0.00000000       0.00000000 </v>
   <v>       0.00000000       0.00000000       0.00000000 </v>
  </varray>
  <varray name="stress" >
   <v>       0.00040148       0.00000000       0.00000000 </v>
   <v>       0.00000000       0.00040148       0.00000000 </v>
   <v>       0.00000000       0.00000000       0.00040148 </v>
  </varray>
  <energy>
   <i name="e_fr_energy">    -36.22850952 </i>
   <i name="e_wo_entrp">    -36.22850952 </i>
   <i name="e_0_energy">      0.00000000 </i>
  </energy>
  <time name="totalsc">    6.37    6.42</time>
  <eigenvalues>
   <array>
    <dimension dim="1">band</dimension>
    <dimension dim="2">kpoint</dimension>
    <dimension dim="3">spin</dimension>
    <field>eigene</field>
    <field>occ</field>
    <set>
     <set comment="spin 1">
      <set comment="kpoint 1">
       <r>  -37.6424    1.0000 </r>
       <r>  -37.6424    1.0000 </r>
       <r>  -37.6424    1.0000 </r>
       <r>  -37.6385    1.0000 </r>
       <r>  -37.6385    1.0000 </r>
       <r>  -37.6385    1.0000 </r>
       <r>  -37.6385    1.0000 </r>
       <r>  -37.6385    1.0000 </r>
       <r>  -37.6385    1.0000 </r>
       <r>  -37.6356    1.0000 </r>
       <r>  -37.6356    1.0000 </r>
       <r>  -37.6356    1.0000 </r>
       <r>   -9.1732    1.0000 </r>
       <r>   -7.4243    1.0000 </r>
       <r>   -7.4243    1.0000 </r>
       <r>   -7.4243    1.0000 </r>
       <r>   -0.7318    1.0000 </r>
       <r>   -0.7318    1.0000 </r>
       <r>   -0.7318    1.0000 </r>
       <r>    1.8539    1.0000 </r>
       <r>    1.8539    1.0000 </r>
       <r>    1.8539    1.0000 </r>
       <r>    1.8539    1.0000 </r>
       <r>    1.8539    1.0000 </r>
       <r>    1.8539    1.0000 </r>
       <r>    3.5878    1.0000 </r>
       <r>    3.5878    1.0000 </r>
       <r>    3.5878    1.0000 </r>
       <r>    6.3230    0.0000 </r>
       <r>    6.3230    0.0000 </r>
       <r>    6.3230    0.0000 </r>
       <r>    7.2837    0.0000 </r>
       <r>    7.7889    0.0000 </r>
       <r>    7.7889    0.0000 </r>
       <r>    7.7889    0.0000 </r>
       <r>   11.4311    0.0000 </r>
      </set>
      <set comment="kpoint 2">
       <r>  -37.6418    1.0000 </r>
       <r>  -37.6418    1.0000 </r>
       <r>  -37.6415    1.0000 </r>
       <r>  -37.6391    1.0000 </r>
       <r>  -37.6391    1.0000 </r>
       <r>  -37.6386    1.0000 </r>
       <r>  -37.6386    1.0000 </r>
       <r>  -37.6381    1.0000 </r>
       <r>  -37.6381    1.0000 </r>
       <r>  -37.6366    1.0000 </r>
       <r>  -37.6360    1.0000 </r>
       <r>  -37.6360    1.0000 </r>
       <r>   -8.9644    1.0000 </r>
       <r>   -7.7456    1.0000 </r>
       <r>   -7.3990    1.0000 </r>
       <r>   -7.3990    1.0000 </r>
       <r>   -0.4757    1.0000 </r>
       <r>   -0.4757    1.0000 </r>
       <r>   -0.2513    1.0000 </r>
       <r>    1.2601    1.0000 </r>
       <r>    1.2601    1.0000 </r>
       <r>    1.4692    1.0000 </r>
       <r>    1.4692    1.0000 </r>
       <r>    2.0495    1.0000 </r>
       <r>    2.0495    1.0000 </r>
       <r>    2.5523    1.0000 </r>
       <r>    3.2501    1.0000 </r>
       <r>    3.2501    1.0000 </r>
       <r>    6.9672    0.0000 </r>
       <r>    7.3616    0.0000 </r>
       <r>    7.3616    0.0000 </r>
       <r>    8.1081    0.0000 </r>
       <r>    8.4449    0.0000 </r>
       <r>    8.9232    0.0000 </r>
       <r>    8.9232    0.0000 </r>
       <r>   10.4411    0.0000 </r>
      </set>
      <set comment="kpoint 3">
       <r>  -37.6405    1.0000 </r>
       <r>  -37.6405    1.0000 </r>
       <r>  -37.6405    1.0000 </r>
       <r>  -37.6405    1.0000 </r>
       <r>  -37.6392    1.0000 </r>
       <r>  -37.6392    1.0000 </r>
       <r>  -37.6385    1.0000 </r>
       <r>  -37.6385    1.0000 </r>
       <r>  -37.6371    1.0000 </r>
       <r>  -37.6371    1.0000 </r>
       <r>  -37.6371    1.0000 </r>
       <r>  -37.6371    1.0000 </r>
       <r>   -8.4077    1.0000 </r>
       <r>   -8.4077    1.0000 </r>
       <r>   -7.3733    1.0000 </r>
       <r>   -7.3733    1.0000 </r>
       <r>    0.2533    1.0000 </r>
       <r>    0.2533    1.0000 </r>
       <r>    0.2533    1.0000 </r>
       <r>    0.2533    1.0000 </r>
       <r>    0.9689    1.0000 </r>
       <r>    0.9689    1.0000 </r>
       <r>    1.1564    1.0000 </r>
       <r>    1.1564    1.0000 </r>
       <r>    2.5843    1.0000 </r>
       <r>    2.5843    1.0000 </r>
       <r>    2.5843    1.0000 </r>
       <r>    2.5843    1.0000 </r>
       <r>    8.5754    0.0000 </r>
       <r>    8.5754    0.0000 </r>
       <r>    8.8522    0.0000 </r>
       <r>    8.8522    0.0000 </r>
       <r>    9.0409    0.0000 </r>
       <r>    9.0409    0.0000 </r>
       <r>   11.4492    0.0000 </r>
       <r>   11.4501    0.0000 </r>
      </set>
      <set comment="kpoint 4">
       <r>  -37.6415    1.0000 </r>
       <r>  -37.6415    1.0000 </r>
       <r>  -37.6413    1.0000 </r>
       <r>  -37.6400    1.0000 </r>
       <r>  -37.6387    1.0000 </r>
       <r>  -37.6387    1.0000 </r>
       <r>  -37.6381    1.0000 </r>
       <r>  -37.6379    1.0000 </r>
       <r>  -37.6379    1.0000 </r>
       <r>  -37.6379    1.0000 </r>
       <r>  -37.6365    1.0000 </r>
       <r>  -37.6357    1.0000 </r>
       <r>   -8.7687    1.0000 </r>
       <r>   -7.6702    1.0000 </r>
       <r>   -7.6702    1.0000 </r>
       <r>   -7.4214    1.0000 </r>
       <r>   -0.2753    1.0000 </r>
       <r>   -0.2753    1.0000 </r>
       <r>   -0.2231    1.0000 </r>
       <r>    0.3051    1.0000 </r>
       <r>    1.4771    1.0000 </r>
       <r>    1.4771    1.0000 </r>
       <r>    1.5927    1.0000 </r>
       <r>    1.9445    1.0000 </r>
       <r>    1.9445    1.0000 </r>
       <r>    2.1806    1.0000 </r>
       <r>    2.8460    1.0000 </r>
       <r>    3.4742    1.0000 </r>
       <r>    7.4268    0.0000 </r>
       <r>    7.9088    0.0000 </r>
       <r>    7.9088    0.0000 </r>
       <r>    8.9484    0.0000 </r>
       <r>    9.1948    0.0000 </r>
       <r>    9.1948    0.0000 </r>
       <r>   10.2080    0.0000 </r>
       <r>   10.6813    0.0000 </r>
      </set>
      <set comment="kpoint 5">
       <r>  -37.6410    1.0000 </r>
       <r>  -37.6410    1.0000 </r>
       <r>  -37.6401    1.0000 </r>
       <r>  -37.6401    1.0000 </r>
       <r>  -37.6399    1.0000 </r>
       <r>  -37.6399    1.0000 </r>
       <r>  -37.6376    1.0000 </r>
       <r>  -37.6376    1.0000 </r>
       <r>  -37.6375    1.0000 </r>
       <r>  -37.6375    1.0000 </r>
       <r>  -37.6366    1.0000 </r>
       <r>  -37.6366    1.0000 </r>
       <r>   -8.2562    1.0000 </r>
       <r>   -8.2562    1.0000 </r>
       <r>   -7.5190    1.0000 </r>
       <r>   -7.5190    1.0000 </r>
       <r>   -0.2256    1.0000 </r>
       <r>   -0.2256    1.0000 </r>
       <r>    0.4367    1.0000 </r>
       <r>    0.4367    1.0000 </r>
       <r>    0.4941    1.0000 </r>
       <r>    0.4941    1.0000 </r>
       <r>    2.0774    1.0000 </r>
       <r>    2.0774    1.0000 </r>
       <r>    2.0854    1.0000 </r>
       <r>    2.0854    1.0000 </r>
       <r>    2.8842    1.0000 </r>
       <r>    2.8842    1.0000 </r>
       <r>    8.8007    0.0000 </r>
       <r>    8.8007    0.0000 </r>
       <r>    9.3749    0.0000 </r>
       <r>    9.3749    0.0000 </r>
       <r>    9.9428    0.0000 </r>
       <r>    9.9428    0.0000 </r>
       <r>   10.6171    0.0000 </r>
       <r>   10.6329    0.0000 </r>
      </set>
      <set comment="kpoint 6">
       <r>  -37.6411    1.0000 </r>
       <r>  -37.6411    1.0000 </r>
       <r>  -37.6411    1.0000 </r>
       <r>  -37.6411    1.0000 </r>
       <r>  -37.6388    1.0000 </r>
       <r>  -37.6388    1.0000 </r>
       <r>  -37.6388    1.0000 </r>
       <r>  -37.6388    1.0000 </r>
       <r>  -37.6367    1.0000 </r>
       <r>  -37.6367    1.0000 </r>
       <r>  -37.6367    1.0000 </r>
       <r>  -37.6367    1.0000 </r>
       <r>   -7.8856    1.0000 </r>
       <r>   -7.8856    1.0000 </r>
       <r>   -7.8856    1.0000 </r>
       <r>   -7.8856    1.0000 </r>
       <r>   -0.2091    1.0000 </r>
       <r>   -0.2091    1.0000 </r>
       <r>   -0.2091    1.0000 </r>
       <r>   -0.2091    1.0000 </r>
       <r>    1.1716    1.0000 </r>
       <r>    1.1716    1.0000 </r>
       <r>    1.1716    1.0000 </r>
       <r>    1.1716    1.0000 </r>
       <r>    2.9305    1.0000 </r>
       <r>    2.9305    1.0000 </r>
       <r>    2.9305    1.0000 </r>
       <r>    2.9305    1.0000 </r>
       <r>    9.1845    0.0000 </r>
       <r>    9.1845    0.0000 </r>
       <r>    9.1845    0.0000 </r>
       <r>    9.1845    0.0000 </r>
       <r>   11.2001    0.0000 </r>
       <r>   11.2028    0.0000 </r>
       <r>   11.2116    0.0000 </r>
       <r>   11.2758    0.0000 </r>
      </set>
      <set comment="kpoint 7">
       <r>  -37.6418    1.0000 </r>
       <r>  -37.6418    1.0000 </r>
       <r>  -37.6418    1.0000 </r>
       <r>  -37.6395    1.0000 </r>
       <r>  -37.6386    1.0000 </r>
       <r>  -37.6386    1.0000 </r>
       <r>  -37.6386    1.0000 </r>
       <r>  -37.6377    1.0000 </r>
       <r>  -37.6377    1.0000 </r>
       <r>  -37.6377    1.0000 </r>
       <r>  -37.6361    1.0000 </r>
       <r>  -37.6361    1.0000 </r>
       <r>   -8.5892    1.0000 </r>
       <r>   -7.6361    1.0000 </r>
       <r>   -7.6361    1.0000 </r>
       <r>   -7.6361    1.0000 </r>
       <r>   -0.5690    1.0000 </r>
       <r>   -0.5690    1.0000 </r>
       <r>   -0.5690    1.0000 </r>
       <r>    0.7063    1.0000 </r>
       <r>    1.3029    1.0000 </r>
       <r>    1.3029    1.0000 </r>
       <r>    1.3029    1.0000 </r>
       <r>    2.3421    1.0000 </r>
       <r>    2.3421    1.0000 </r>
       <r>    2.3421    1.0000 </r>
       <r>    3.2512    1.0000 </r>
       <r>    3.2512    1.0000 </r>
       <r>    7.9245    0.0000 </r>
       <r>    7.9245    0.0000 </r>
       <r>    7.9245    0.0000 </r>
       <r>    8.4646    0.0000 </r>
       <r>   10.2604    0.0000 </r>
       <r>   10.2604    0.0000 </r>
       <r>   10.2604    0.0000 </r>
       <r>   11.3419    0.0000 </r>
      </set>
      <set comment="kpoint 8">
       <r>  -37.6421    1.0000 </r>
       <r>  -37.6421    1.0000 </r>
       <r>  -37.6413    1.0000 </r>
       <r>  -37.6413    1.0000 </r>
       <r>  -37.6386    1.0000 </r>
       <r>  -37.6386    1.0000 </r>
       <r>  -37.6373    1.0000 </r>
       <r>  -37.6373    1.0000 </r>
       <r>  -37.6369    1.0000 </r>
       <r>  -37.6369    1.0000 </r>
       <r>  -37.6368    1.0000 </r>
       <r>  -37.6368    1.0000 </r>
       <r>   -8.1309    1.0000 </r>
       <r>   -8.1309    1.0000 </r>
       <r>   -7.6010    1.0000 </r>
       <r>   -7.6010    1.0000 </r>
       <r>   -0.8405    1.0000 </r>
       <r>   -0.8405    1.0000 </r>
       <r>   -0.2650    1.0000 </r>
       <r>   -0.2650    1.0000 </r>
       <r>    1.3739    1.0000 </r>
       <r>    1.3739    1.0000 </r>
       <r>    2.3947    1.0000 </r>
       <r>    2.3947    1.0000 </r>
       <r>    2.6358    1.0000 </r>
       <r>    2.6358    1.0000 </r>
       <r>    2.7664    1.0000 </r>
       <r>    2.7664    1.0000 </r>
       <r>    8.7787    0.0000 </r>
       <r>    8.7787    0.0000 </r>
       <r>    9.1241    0.0000 </r>
       <r>    9.1241    0.0000 </r>
       <r>    9.6038    0.0000 </r>
       <r>    9.6038    0.0000 </r>
       <r>   10.1576    0.0000 </r>
       <r>   10.1576    0.0000 </r>
      </set>
      <set comment="kpoint 9">
       <r>  -37.6424    1.0000 </r>
       <r>  -37.6424    1.0000 </r>
       <r>  -37.6424    1.0000 </r>
       <r>  -37.6424    1.0000 </r>
       <r>  -37.6375    1.0000 </r>
       <r>  -37.6375    1.0000 </r>
       <r>  -37.6375    1.0000 </r>
       <r>  -37.6375    1.0000 </r>
       <r>  -37.6367    1.0000 </r>
       <r>  -37.6367    1.0000 </r>
       <r>  -37.6367    1.0000 </r>
       <r>  -37.6367    1.0000 </r>
       <r>   -7.8447    1.0000 </r>
       <r>   -7.8447    1.0000 </r>
       <r>   -7.8447    1.0000 </r>
       <r>   -7.8447    1.0000 </r>
       <r>   -0.9395    1.0000 </r>
       <r>   -0.9395    1.0000 </r>
       <r>   -0.9395    1.0000 </r>
       <r>   -0.9395    1.0000 </r>
       <r>    2.1796    1.0000 </r>
       <r>    2.1796    1.0000 </r>
       <r>    2.1796    1.0000 </r>
       <r>    2.1796    1.0000 </r>
       <r>    2.9510    1.0000 </r>
       <r>    2.9510    1.0000 </r>
       <r>    2.9510    1.0000 </r>
       <r>    2.9510    1.0000 </r>
       <r>    8.8262    0.0000 </r>
       <r>    8.8262    0.0000 </r>
       <r>    8.8262    0.0000 </r>
       <r>    8.8262    0.0000 </r>
       <r>   10.0265    0.0000 </r>
       <r>   10.0265    0.0000 </r>
       <r>   10.0265    0.0000 </r>
       <r>   10.0265    0.0000 </r>
      </set>
      <set comment="kpoint 10">
       <r>  -37.6433    1.0000 </r>
       <r>  -37.6433    1.0000 </r>
       <r>  -37.6433    1.0000 </r>
       <r>  -37.6433    1.0000 </r>
       <r>  -37.6367    1.0000 </r>
       <r>  -37.6367    1.0000 </r>
       <r>  -37.6367    1.0000 </r>
       <r>  -37.6367    1.0000 </r>
       <r>  -37.6367    1.0000 </r>
       <r>  -37.6367    1.0000 </r>
       <r>  -37.6367    1.0000 </r>
       <r>  -37.6367    1.0000 </r>
       <r>   -7.8025    1.0000 </r>
       <r>   -7.8025    1.0000 </r>
       <r>   -7.8025    1.0000 </r>
       <r>   -7.8025    1.0000 </r>
       <r>   -1.3772    1.0000 </r>
       <r>   -1.3772    1.0000 </r>
       <r>   -1.3772    1.0000 </r>
       <r>   -1.3772    1.0000 </r>
       <r>    2.9718    1.0000 </r>
       <r>    2.9718    1.0000 </r>
       <r>    2.9718    1.0000 </r>
       <r>    2.9718    1.0000 </r>
       <r>    2.9718    1.0000 </r>
       <r>    2.9718    1.0000 </r>
       <r>    2.9718    1.0000 </r>
       <r>    2.9718    1.0000 </r>
       <r>    8.0075    0.0000 </r>
       <r>    8.0075    0.0000 </r>
       <r>    8.0075    0.0000 </r>
       <r>    8.0075    0.0000 </r>
       <r>   10.4316    0.0000 </r>
       <r>   10.4316    0.0000 </r>
       <r>   10.4316    0.0000 </r>
       <r>   10.4316    0.0000 </r>
      </set>
     </set>
    </set>
   </array>
  </eigenvalues>
  <separator name="orbital magnetization" >
   <v name="MAGDIPOLOUT">      0.00000000      0.00000000      0.00000000</v>
  </separator>
  <dos>
   <i name="efermi">      3.68923634 </i>
   <total>
    <array>
     <dimension dim="1">gridpoints</dimension>
     <dimension dim="2">spin</dimension>
     <field>energy</field>
     <field>total</field>
     <field>integrated</field>
     <set>
      <set comment="spin 1">
       <r>   -40.0980     0.0000     0.0000 </r>
       <r>   -39.9180     0.0000     0.0000 </r>
       <r>   -39.7380     0.0000     0.0000 </r>
       <r>   -39.5579     0.0000     0.0000 </r>
       <r>   -39.3779     0.0000     0.0000 </r>
       <r>   -39.1979     0.0000     0.0000 </r>
       <r>   -39.0179     0.0000     0.0000 </r>
       <r>   -38.8379     0.0000     0.0000 </r>
       <r>   -38.6579     0.0000     0.0000 </r>
       <r>   -38.4779     0.0000     0.0000 </r>
       <r>   -38.2979     0.0000     0.0000 </r>
       <r>   -38.1179     0.0000     0.0000 </r>
       <r>   -37.9379     0.0000     0.0000 </r>
       <r>   -37.7579     0.0000     0.0000 </r>
       <r>   -37.5778   133.3266    24.0000 </r>
       <r>   -37.3978     0.0000    24.0000 </r>
       <r>   -37.2178     0.0000    24.0000 </r>
       <r>   -37.0378     0.0000    24.0000 </r>
       <r>   -36.8578     0.0000    24.0000 </r>
       <r>   -36.6778     0.0000    24.0000 </r>
       <r>   -36.4978     0.0000    24.0000 </r>
       <r>   -36.3178     0.0000    24.0000 </r>
       <r>   -36.1378     0.0000    24.0000 </r>
       <r>   -35.9578     0.0000    24.0000 </r>
       <r>   -35.7778     0.0000    24.0000 </r>
       <r>   -35.5977     0.0000    24.0000 </r>
       <r>   -35.4177     0.0000    24.0000 </r>
       <r>   -35.2377     0.0000    24.0000 </r>
       <r>   -35.0577     0.0000    24.0000 </r>
       <r>   -34.8777     0.0000    24.0000 </r>
       <r>   -34.6977     0.0000    24.0000 </r>
       <r>   -34.5177     0.0000    24.0000 </r>
       <r>   -34.3377     0.0000    24.0000 </r>
       <r>   -34.1577     0.0000    24.0000 </r>
       <r>   -33.9777     0.0000    24.0000 </r>
       <r>   -33.7977     0.0000    24.0000 </r>
       <r>   -33.6176     0.0000    24.0000 </r>
       <r>   -33.4376     0.0000    24.0000 </r>
       <r>   -33.2576     0.0000    24.0000 </r>
       <r>   -33.0776     0.0000    24.0000 </r>
       <r>   -32.8976     0.0000    24.0000 </r>
       <r>   -32.7176     0.0000    24.0000 </r>
       <r>   -32.5376     0.0000    24.0000 </r>
       <r>   -32.3576     0.0000    24.0000 </r>
       <r>   -32.1776     0.0000    24.0000 </r>
       <r>   -31.9976     0.0000    24.0000 </r>
       <r>   -31.8176     0.0000    24.0000 </r>
       <r>   -31.6375     0.0000    24.0000 </r>
       <r>   -31.4575     0.0000    24.0000 </r>
       <r>   -31.2775     0.0000    24.0000 </r>
       <r>   -31.0975     0.0000    24.0000 </r>
       <r>   -30.9175     0.0000    24.0000 </r>
       <r>   -30.7375     0.0000    24.0000 </r>
       <r>   -30.5575     0.0000    24.0000 </r>
       <r>   -30.3775     0.0000    24.0000 </r>
       <r>   -30.1975     0.0000    24.0000 </r>
       <r>   -30.0175     0.0000    24.0000 </r>
       <r>   -29.8375     0.0000    24.0000 </r>
       <r>   -29.6574     0.0000    24.0000 </r>
       <r>   -29.4774     0.0000    24.0000 </r>
       <r>   -29.2974     0.0000    24.0000 </r>
       <r>   -29.1174     0.0000    24.0000 </r>
       <r>   -28.9374     0.0000    24.0000 </r>
       <r>   -28.7574     0.0000    24.0000 </r>
       <r>   -28.5774     0.0000    24.0000 </r>
       <r>   -28.3974     0.0000    24.0000 </r>
       <r>   -28.2174     0.0000    24.0000 </r>
       <r>   -28.0374     0.0000    24.0000 </r>
       <r>   -27.8574     0.0000    24.0000 </r>
       <r>   -27.6773     0.0000    24.0000 </r>
       <r>   -27.4973     0.0000    24.0000 </r>
       <r>   -27.3173     0.0000    24.0000 </r>
       <r>   -27.1373     0.0000    24.0000 </r>
       <r>   -26.9573     0.0000    24.0000 </r>
       <r>   -26.7773     0.0000    24.0000 </r>
       <r>   -26.5973     0.0000    24.0000 </r>
       <r>   -26.4173     0.0000    24.0000 </r>
       <r>   -26.2373     0.0000    24.0000 </r>
       <r>   -26.0573     0.0000    24.0000 </r>
       <r>   -25.8773     0.0000    24.0000 </r>
       <r>   -25.6972     0.0000    24.0000 </r>
       <r>   -25.5172     0.0000    24.0000 </r>
       <r>   -25.3372     0.0000    24.0000 </r>
       <r>   -25.1572     0.0000    24.0000 </r>
       <r>   -24.9772     0.0000    24.0000 </r>
       <r>   -24.7972     0.0000    24.0000 </r>
       <r>   -24.6172     0.0000    24.0000 </r>
       <r>   -24.4372     0.0000    24.0000 </r>
       <r>   -24.2572     0.0000    24.0000 </r>
       <r>   -24.0772     0.0000    24.0000 </r>
       <r>   -23.8972     0.0000    24.0000 </r>
       <r>   -23.7171     0.0000    24.0000 </r>
       <r>   -23.5371     0.0000    24.0000 </r>
       <r>   -23.3571     0.0000    24.0000 </r>
       <r>   -23.1771     0.0000    24.0000 </r>
       <r>   -22.9971     0.0000    24.0000 </r>
       <r>   -22.8171     0.0000    24.0000 </r>
       <r>   -22.6371     0.0000    24.0000 </r>
       <r>   -22.4571     0.0000    24.0000 </r>
       <r>   -22.2771     0.0000    24.0000 </r>
       <r>   -22.0971     0.0000    24.0000 </r>
       <r>   -21.9171     0.0000    24.0000 </r>
       <r>   -21.7370     0.0000    24.0000 </r>
       <r>   -21.5570     0.0000    24.0000 </r>
       <r>   -21.3770     0.0000    24.0000 </r>
       <r>   -21.1970     0.0000    24.0000 </r>
       <r>   -21.0170     0.0000    24.0000 </r>
       <r>   -20.8370     0.0000    24.0000 </r>
       <r>   -20.6570     0.0000    24.0000 </r>
       <r>   -20.4770     0.0000    24.0000 </r>
       <r>   -20.2970     0.0000    24.0000 </r>
       <r>   -20.1170     0.0000    24.0000 </r>
       <r>   -19.9370     0.0000    24.0000 </r>
       <r>   -19.7569     0.0000    24.0000 </r>
       <r>   -19.5769     0.0000    24.0000 </r>
       <r>   -19.3969     0.0000    24.0000 </r>
       <r>   -19.2169     0.0000    24.0000 </r>
       <r>   -19.0369     0.0000    24.0000 </r>
       <r>   -18.8569     0.0000    24.0000 </r>
       <r>   -18.6769     0.0000    24.0000 </r>
       <r>   -18.4969     0.0000    24.0000 </r>
       <r>   -18.3169     0.0000    24.0000 </r>
       <r>   -18.1369     0.0000    24.0000 </r>
       <r>   -17.9569     0.0000    24.0000 </r>
       <r>   -17.7768     0.0000    24.0000 </r>
       <r>   -17.5968     0.0000    24.0000 </r>
       <r>   -17.4168     0.0000    24.0000 </r>
       <r>   -17.2368     0.0000    24.0000 </r>
       <r>   -17.0568     0.0000    24.0000 </r>
       <r>   -16.8768     0.0000    24.0000 </r>
       <r>   -16.6968     0.0000    24.0000 </r>
       <r>   -16.5168     0.0000    24.0000 </r>
       <r>   -16.3368     0.0000    24.0000 </r>
       <r>   -16.1568     0.0000    24.0000 </r>
       <r>   -15.9768     0.0000    24.0000 </r>
       <r>   -15.7967     0.0000    24.0000 </r>
       <r>   -15.6167     0.0000    24.0000 </r>
       <r>   -15.4367     0.0000    24.0000 </r>
       <r>   -15.2567     0.0000    24.0000 </r>
       <r>   -15.0767     0.0000    24.0000 </r>
       <r>   -14.8967     0.0000    24.0000 </r>
       <r>   -14.7167     0.0000    24.0000 </r>
       <r>   -14.5367     0.0000    24.0000 </r>
       <r>   -14.3567     0.0000    24.0000 </r>
       <r>   -14.1767     0.0000    24.0000 </r>
       <r>   -13.9967     0.0000    24.0000 </r>
       <r>   -13.8166     0.0000    24.0000 </r>
       <r>   -13.6366     0.0000    24.0000 </r>
       <r>   -13.4566     0.0000    24.0000 </r>
       <r>   -13.2766     0.0000    24.0000 </r>
       <r>   -13.0966     0.0000    24.0000 </r>
       <r>   -12.9166     0.0000    24.0000 </r>
       <r>   -12.7366     0.0000    24.0000 </r>
       <r>   -12.5566     0.0000    24.0000 </r>
       <r>   -12.3766     0.0000    24.0000 </r>
       <r>   -12.1966     0.0000    24.0000 </r>
       <r>   -12.0166     0.0000    24.0000 </r>
       <r>   -11.8365     0.0000    24.0000 </r>
       <r>   -11.6565     0.0000    24.0000 </r>
       <r>   -11.4765     0.0000    24.0000 </r>
       <r>   -11.2965     0.0000    24.0000 </r>
       <r>   -11.1165     0.0000    24.0000 </r>
       <r>   -10.9365     0.0000    24.0000 </r>
       <r>   -10.7565     0.0000    24.0000 </r>
       <r>   -10.5765     0.0000    24.0000 </r>
       <r>   -10.3965     0.0000    24.0000 </r>
       <r>   -10.2165     0.0000    24.0000 </r>
       <r>   -10.0365     0.0000    24.0000 </r>
       <r>    -9.8564     0.0000    24.0000 </r>
       <r>    -9.6764     0.0000    24.0000 </r>
       <r>    -9.4964     0.0000    24.0000 </r>
       <r>    -9.3164     0.0000    24.0000 </r>
       <r>    -9.1364     0.1736    24.0312 </r>
       <r>    -8.9564     0.9062    24.1944 </r>
       <r>    -8.7764     0.2886    24.2707 </r>
       <r>    -8.5964     0.2147    24.6324 </r>
       <r>    -8.4164     0.1149    24.8644 </r>
       <r>    -8.2364     4.1558    25.7793 </r>
       <r>    -8.0564     4.1665    26.5312 </r>
       <r>    -7.8763     1.8862    26.8708 </r>
       <r>    -7.6963     1.0421    27.9688 </r>
       <r>    -7.5163     2.6995    30.7047 </r>
       <r>    -7.3363     3.1248    32.0000 </r>
       <r>    -7.1563     0.0000    32.0000 </r>
       <r>    -6.9763     0.0000    32.0000 </r>
       <r>    -6.7963     0.0000    32.0000 </r>
       <r>    -6.6163     0.0000    32.0000 </r>
       <r>    -6.4363     0.0000    32.0000 </r>
       <r>    -6.2563     0.0000    32.0000 </r>
       <r>    -6.0763     0.0000    32.0000 </r>
       <r>    -5.8962     0.0000    32.0000 </r>
       <r>    -5.7162     0.0000    32.0000 </r>
       <r>    -5.5362     0.0000    32.0000 </r>
       <r>    -5.3562     0.0000    32.0000 </r>
       <r>    -5.1762     0.0000    32.0000 </r>
       <r>    -4.9962     0.0000    32.0000 </r>
       <r>    -4.8162     0.0000    32.0000 </r>
       <r>    -4.6362     0.0000    32.0000 </r>
       <r>    -4.4562     0.0000    32.0000 </r>
       <r>    -4.2762     0.0000    32.0000 </r>
       <r>    -4.0962     0.0000    32.0000 </r>
       <r>    -3.9161     0.0000    32.0000 </r>
       <r>    -3.7361     0.0000    32.0000 </r>
       <r>    -3.5561     0.0000    32.0000 </r>
       <r>    -3.3761     0.0000    32.0000 </r>
       <r>    -3.1961     0.0000    32.0000 </r>
       <r>    -3.0161     0.0000    32.0000 </r>
       <r>    -2.8361     0.0000    32.0000 </r>
       <r>    -2.6561     0.0000    32.0000 </r>
       <r>    -2.4761     0.0000    32.0000 </r>
       <r>    -2.2961     0.0000    32.0000 </r>
       <r>    -2.1161     0.0000    32.0000 </r>
       <r>    -1.9360     0.0000    32.0000 </r>
       <r>    -1.7560     0.0000    32.0000 </r>
       <r>    -1.5760     0.0000    32.0000 </r>
       <r>    -1.3960     0.0027    32.0005 </r>
       <r>    -1.2160     0.0000    32.1250 </r>
       <r>    -1.0360     0.0000    32.1250 </r>
       <r>    -0.8560     0.0586    32.8855 </r>
       <r>    -0.6760     0.5208    33.7188 </r>
       <r>    -0.4960     4.1708    34.4695 </r>
       <r>    -0.3160     0.0000    34.8438 </r>
       <r>    -0.1360     2.0832    38.0312 </r>
       <r>     0.0441     0.0000    38.0312 </r>
       <r>     0.2241     0.0000    38.0313 </r>
       <r>     0.4041     0.0000    38.7813 </r>
       <r>     0.5841     0.0000    40.2812 </r>
       <r>     0.7641     1.3888    40.5312 </r>
       <r>     0.9441     0.0002    40.5313 </r>
       <r>     1.1241     0.0000    40.7188 </r>
       <r>     1.3041     4.4557    42.0833 </r>
       <r>     1.4841     5.5447    44.1543 </r>
       <r>     1.6641     2.0832    44.6562 </r>
       <r>     1.8441     0.0877    44.6720 </r>
       <r>     2.0242     4.1668    45.5938 </r>
       <r>     2.2042     6.2477    48.5934 </r>
       <r>     2.3842     4.4488    49.3946 </r>
       <r>     2.5642     0.9982    50.2734 </r>
       <r>     2.7442     0.0035    51.4069 </r>
       <r>     2.9242     6.6410    53.3517 </r>
       <r>     3.1042     0.0000    54.6562 </r>
       <r>     3.2842     4.8609    55.5312 </r>
       <r>     3.4642     0.1666    55.5612 </r>
       <r>     3.6442     0.5208    56.0000 </r>
       <r>     3.8242     0.0000    56.0000 </r>
       <r>     4.0043     0.0000    56.0000 </r>
       <r>     4.1843     0.0000    56.0000 </r>
       <r>     4.3643     0.0000    56.0000 </r>
       <r>     4.5443     0.0000    56.0000 </r>
       <r>     4.7243     0.0000    56.0000 </r>
       <r>     4.9043     0.0000    56.0000 </r>
       <r>     5.0843     0.0000    56.0000 </r>
       <r>     5.2643     0.0000    56.0000 </r>
       <r>     5.4443     0.0000    56.0000 </r>
       <r>     5.6243     0.0000    56.0000 </r>
       <r>     5.8043     0.0000    56.0000 </r>
       <r>     5.9844     0.0000    56.0000 </r>
       <r>     6.1644     0.0000    56.0000 </r>
       <r>     6.3444     0.5201    56.0936 </r>
       <r>     6.5244     0.0000    56.0938 </r>
       <r>     6.7044     0.0000    56.0938 </r>
       <r>     6.8844     0.0000    56.0938 </r>
       <r>     7.0644     0.0000    56.2812 </r>
       <r>     7.2444     0.0000    56.2813 </r>
       <r>     7.4244     2.8548    56.8264 </r>
       <r>     7.6044     0.0000    57.0625 </r>
       <r>     7.7844     0.1376    57.0873 </r>
       <r>     7.9645     8.3329    58.6562 </r>
       <r>     8.1445     1.0416    58.9687 </r>
       <r>     8.3245     0.0000    58.9688 </r>
       <r>     8.5045     2.4304    59.4062 </r>
       <r>     8.6845     0.0000    59.5938 </r>
       <r>     8.8645     9.3314    62.0235 </r>
       <r>     9.0445     0.7219    62.9112 </r>
       <r>     9.2245     6.2496    64.8437 </r>
       <r>     9.4045     4.1664    65.5937 </r>
       <r>     9.5845     0.0136    65.5962 </r>
       <r>     9.7645     0.0000    66.3438 </r>
       <r>     9.9446     2.5011    66.7940 </r>
       <r>    10.1246     0.0000    67.8438 </r>
       <r>    10.3046     4.1665    69.7187 </r>
       <r>    10.4846     1.7360    70.0312 </r>
       <r>    10.6646     4.1853    70.7846 </r>
       <r>    10.8446     0.0000    71.1562 </r>
       <r>    11.0246     0.0000    71.1562 </r>
       <r>    11.2046     0.7807    71.2968 </r>
       <r>    11.3846     1.3888    71.7812 </r>
       <r>    11.5646     0.0000    72.0000 </r>
       <r>    11.7446     0.0000    72.0000 </r>
       <r>    11.9247     0.0000    72.0000 </r>
       <r>    12.1047     0.0000    72.0000 </r>
       <r>    12.2847     0.0000    72.0000 </r>
       <r>    12.4647     0.0000    72.0000 </r>
       <r>    12.6447     0.0000    72.0000 </r>
       <r>    12.8247     0.0000    72.0000 </r>
       <r>    13.0047     0.0000    72.0000 </r>
       <r>    13.1847     0.0000    72.0000 </r>
       <r>    13.3647     0.0000    72.0000 </r>
       <r>    13.5447     0.0000    72.0000 </r>
       <r>    13.7247     0.0000    72.0000 </r>
       <r>    13.9048     0.0000    72.0000 </r>
      </set>
     </set>
    </array>
   </total>
  </dos>
 </calculation>
 <structure name="finalpos" >
  <crystal>
   <varray name="basis" >
    <v>       5.18097283       0.00000000       0.00000000 </v>
    <v>       0.00000000       5.18097283       0.00000000 </v>
    <v>       0.00000000       0.00000000       5.18097283 </v>
   </varray>
   <i name="volume">    139.07015680 </i>
   <varray name="rec_basis" >
    <v>       0.19301394       0.00000000       0.00000000 </v>
    <v>       0.00000000       0.19301394       0.00000000 </v>
    <v>       0.00000000       0.00000000       0.19301394 </v>
   </varray>
  </crystal>
  <varray name="positions" >
   <v>       0.00000000       0.00000000       0.00000000 </v>
   <v>       0.00000000       0.50000000       0.50000000 </v>
   <v>       0.50000000       0.00000000       0.50000000 </v>
   <v>       0.50000000       0.50000000       0.00000000 </v>
   <v>       0.50000000       0.00000000       0.00000000 </v>
   <v>       0.50000000       0.50000000       0.50000000 </v>
   <v>       0.00000000       0.00000000       0.50000000 </v>
   <v>       0.00000000       0.50000000       0.00000000 </v>
  </varray>
 </structure>
</modeling>
