   8   8   0   0
  0.1703609E+02  0.5146200E-09  0.5146200E-09  0.5146200E-09  0.5000000E-15
  1.000000000000000E-004
  CAR 
 unknown system                          
     14.11345018    -39.87649739  301      3.90035177      1.00000000
    -39.876  0.0000E+00  0.0000E+00
    -39.697  0.0000E+00  0.0000E+00
    -39.517  0.0000E+00  0.0000E+00
    -39.337  0.0000E+00  0.0000E+00
    -39.157  0.0000E+00  0.0000E+00
    -38.977  0.0000E+00  0.0000E+00
    -38.797  0.0000E+00  0.0000E+00
    -38.617  0.0000E+00  0.0000E+00
    -38.437  0.0000E+00  0.0000E+00
    -38.257  0.0000E+00  0.0000E+00
    -38.077  0.0000E+00  0.0000E+00
    -37.897  0.0000E+00  0.0000E+00
    -37.717  0.0000E+00  0.0000E+00
    -37.537  0.0000E+00  0.0000E+00
    -37.357  0.6668E+01  0.1200E+01
    -37.177  0.0000E+00  0.1200E+01
    -36.997  0.0000E+00  0.1200E+01
    -36.817  0.0000E+00  0.1200E+01
    -36.637  0.0000E+00  0.1200E+01
    -36.457  0.0000E+00  0.1200E+01
    -36.277  0.0000E+00  0.1200E+01
    -36.097  0.0000E+00  0.1200E+01
    -35.917  0.0000E+00  0.1200E+01
    -35.737  0.0000E+00  0.1200E+01
    -35.557  0.0000E+00  0.1200E+01
    -35.377  0.0000E+00  0.1200E+01
    -35.197  0.0000E+00  0.1200E+01
    -35.017  0.0000E+00  0.1200E+01
    -34.837  0.0000E+00  0.1200E+01
    -34.657  0.0000E+00  0.1200E+01
    -34.478  0.0000E+00  0.1200E+01
    -34.298  0.0000E+00  0.1200E+01
    -34.118  0.0000E+00  0.1200E+01
    -33.938  0.0000E+00  0.1200E+01
    -33.758  0.0000E+00  0.1200E+01
    -33.578  0.0000E+00  0.1200E+01
    -33.398  0.0000E+00  0.1200E+01
    -33.218  0.0000E+00  0.1200E+01
    -33.038  0.0000E+00  0.1200E+01
    -32.858  0.0000E+00  0.1200E+01
    -32.678  0.0000E+00  0.1200E+01
    -32.498  0.0000E+00  0.1200E+01
    -32.318  0.0000E+00  0.1200E+01
    -32.138  0.0000E+00  0.1200E+01
    -31.958  0.0000E+00  0.1200E+01
    -31.778  0.0000E+00  0.1200E+01
    -31.598  0.0000E+00  0.1200E+01
    -31.418  0.0000E+00  0.1200E+01
    -31.238  0.0000E+00  0.1200E+01
    -31.058  0.0000E+00  0.1200E+01
    -30.878  0.0000E+00  0.1200E+01
    -30.698  0.0000E+00  0.1200E+01
    -30.518  0.0000E+00  0.1200E+01
    -30.338  0.0000E+00  0.1200E+01
    -30.158  0.0000E+00  0.1200E+01
    -29.978  0.0000E+00  0.1200E+01
    -29.798  0.0000E+00  0.1200E+01
    -29.618  0.0000E+00  0.1200E+01
    -29.438  0.0000E+00  0.1200E+01
    -29.258  0.0000E+00  0.1200E+01
    -29.079  0.0000E+00  0.1200E+01
    -28.899  0.0000E+00  0.1200E+01
    -28.719  0.0000E+00  0.1200E+01
    -28.539  0.0000E+00  0.1200E+01
    -28.359  0.0000E+00  0.1200E+01
    -28.179  0.0000E+00  0.1200E+01
    -27.999  0.0000E+00  0.1200E+01
    -27.819  0.0000E+00  0.1200E+01
    -27.639  0.0000E+00  0.1200E+01
    -27.459  0.0000E+00  0.1200E+01
    -27.279  0.0000E+00  0.1200E+01
    -27.099  0.0000E+00  0.1200E+01
    -26.919  0.0000E+00  0.1200E+01
    -26.739  0.0000E+00  0.1200E+01
    -26.559  0.0000E+00  0.1200E+01
    -26.379  0.0000E+00  0.1200E+01
    -26.199  0.0000E+00  0.1200E+01
    -26.019  0.0000E+00  0.1200E+01
    -25.839  0.0000E+00  0.1200E+01
    -25.659  0.0000E+00  0.1200E+01
    -25.479  0.0000E+00  0.1200E+01
    -25.299  0.0000E+00  0.1200E+01
    -25.119  0.0000E+00  0.1200E+01
    -24.939  0.0000E+00  0.1200E+01
    -24.759  0.0000E+00  0.1200E+01
    -24.579  0.0000E+00  0.1200E+01
    -24.399  0.0000E+00  0.1200E+01
    -24.219  0.0000E+00  0.1200E+01
    -24.039  0.0000E+00  0.1200E+01
    -23.859  0.0000E+00  0.1200E+01
    -23.680  0.0000E+00  0.1200E+01
    -23.500  0.0000E+00  0.1200E+01
    -23.320  0.0000E+00  0.1200E+01
    -23.140  0.0000E+00  0.1200E+01
    -22.960  0.0000E+00  0.1200E+01
    -22.780  0.0000E+00  0.1200E+01
    -22.600  0.0000E+00  0.1200E+01
    -22.420  0.0000E+00  0.1200E+01
    -22.240  0.0000E+00  0.1200E+01
    -22.060  0.0000E+00  0.1200E+01
    -21.880  0.0000E+00  0.1200E+01
    -21.700  0.0000E+00  0.1200E+01
    -21.520  0.0000E+00  0.1200E+01
    -21.340  0.0000E+00  0.1200E+01
    -21.160  0.0000E+00  0.1200E+01
    -20.980  0.0000E+00  0.1200E+01
    -20.800  0.0000E+00  0.1200E+01
    -20.620  0.0000E+00  0.1200E+01
    -20.440  0.0000E+00  0.1200E+01
    -20.260  0.0000E+00  0.1200E+01
    -20.080  0.0000E+00  0.1200E+01
    -19.900  0.0000E+00  0.1200E+01
    -19.720  0.0000E+00  0.1200E+01
    -19.540  0.0000E+00  0.1200E+01
    -19.360  0.0000E+00  0.1200E+01
    -19.180  0.0000E+00  0.1200E+01
    -19.000  0.0000E+00  0.1200E+01
    -18.820  0.0000E+00  0.1200E+01
    -18.640  0.0000E+00  0.1200E+01
    -18.460  0.0000E+00  0.1200E+01
    -18.281  0.0000E+00  0.1200E+01
    -18.101  0.0000E+00  0.1200E+01
    -17.921  0.0000E+00  0.1200E+01
    -17.741  0.0000E+00  0.1200E+01
    -17.561  0.0000E+00  0.1200E+01
    -17.381  0.0000E+00  0.1200E+01
    -17.201  0.0000E+00  0.1200E+01
    -17.021  0.0000E+00  0.1200E+01
    -16.841  0.0000E+00  0.1200E+01
    -16.661  0.0000E+00  0.1200E+01
    -16.481  0.0000E+00  0.1200E+01
    -16.301  0.0000E+00  0.1200E+01
    -16.121  0.0000E+00  0.1200E+01
    -15.941  0.0000E+00  0.1200E+01
    -15.761  0.0000E+00  0.1200E+01
    -15.581  0.0000E+00  0.1200E+01
    -15.401  0.0000E+00  0.1200E+01
    -15.221  0.0000E+00  0.1200E+01
    -15.041  0.0000E+00  0.1200E+01
    -14.861  0.0000E+00  0.1200E+01
    -14.681  0.0000E+00  0.1200E+01
    -14.501  0.0000E+00  0.1200E+01
    -14.321  0.0000E+00  0.1200E+01
    -14.141  0.0000E+00  0.1200E+01
    -13.961  0.0000E+00  0.1200E+01
    -13.781  0.0000E+00  0.1200E+01
    -13.601  0.0000E+00  0.1200E+01
    -13.421  0.0000E+00  0.1200E+01
    -13.241  0.0000E+00  0.1200E+01
    -13.061  0.0000E+00  0.1200E+01
    -12.882  0.0000E+00  0.1200E+01
    -12.702  0.0000E+00  0.1200E+01
    -12.522  0.0000E+00  0.1200E+01
    -12.342  0.0000E+00  0.1200E+01
    -12.162  0.0000E+00  0.1200E+01
    -11.982  0.0000E+00  0.1200E+01
    -11.802  0.0000E+00  0.1200E+01
    -11.622  0.0000E+00  0.1200E+01
    -11.442  0.0000E+00  0.1200E+01
    -11.262  0.0000E+00  0.1200E+01
    -11.082  0.0000E+00  0.1200E+01
    -10.902  0.0000E+00  0.1200E+01
    -10.722  0.0000E+00  0.1200E+01
    -10.542  0.0000E+00  0.1200E+01
    -10.362  0.0000E+00  0.1200E+01
    -10.182  0.0000E+00  0.1200E+01
    -10.002  0.0000E+00  0.1200E+01
     -9.822  0.0000E+00  0.1200E+01
     -9.642  0.0000E+00  0.1200E+01
     -9.462  0.0000E+00  0.1200E+01
     -9.282  0.0000E+00  0.1200E+01
     -9.102  0.8008E-02  0.1201E+01
     -8.922  0.7811E-05  0.1202E+01
     -8.742  0.5896E-12  0.1211E+01
     -8.562  0.6555E-15  0.1230E+01
     -8.382  0.0000E+00  0.1242E+01
     -8.202  0.1855E-08  0.1252E+01
     -8.022  0.1883E+00  0.1323E+01
     -7.842  0.0000E+00  0.1327E+01
     -7.662  0.2431E+00  0.1389E+01
     -7.483  0.4627E+00  0.1482E+01
     -7.303  0.5500E-02  0.1549E+01
     -7.123  0.0000E+00  0.1600E+01
     -6.943  0.0000E+00  0.1600E+01
     -6.763  0.0000E+00  0.1600E+01
     -6.583  0.0000E+00  0.1600E+01
     -6.403  0.0000E+00  0.1600E+01
     -6.223  0.0000E+00  0.1600E+01
     -6.043  0.0000E+00  0.1600E+01
     -5.863  0.0000E+00  0.1600E+01
     -5.683  0.0000E+00  0.1600E+01
     -5.503  0.0000E+00  0.1600E+01
     -5.323  0.0000E+00  0.1600E+01
     -5.143  0.0000E+00  0.1600E+01
     -4.963  0.0000E+00  0.1600E+01
     -4.783  0.0000E+00  0.1600E+01
     -4.603  0.0000E+00  0.1600E+01
     -4.423  0.0000E+00  0.1600E+01
     -4.243  0.0000E+00  0.1600E+01
     -4.063  0.0000E+00  0.1600E+01
     -3.883  0.0000E+00  0.1600E+01
     -3.703  0.0000E+00  0.1600E+01
     -3.523  0.0000E+00  0.1600E+01
     -3.343  0.0000E+00  0.1600E+01
     -3.163  0.0000E+00  0.1600E+01
     -2.983  0.0000E+00  0.1600E+01
     -2.803  0.0000E+00  0.1600E+01
     -2.623  0.0000E+00  0.1600E+01
     -2.443  0.0000E+00  0.1600E+01
     -2.264  0.0000E+00  0.1600E+01
     -2.084  0.0000E+00  0.1600E+01
     -1.904  0.0000E+00  0.1600E+01
     -1.724  0.0000E+00  0.1600E+01
     -1.544  0.0000E+00  0.1600E+01
     -1.364  0.2121E-16  0.1600E+01
     -1.184  0.0000E+00  0.1606E+01
     -1.004  0.0000E+00  0.1606E+01
     -0.824  0.2084E+00  0.1644E+01
     -0.644  0.2566E-01  0.1686E+01
     -0.464  0.2077E+00  0.1723E+01
     -0.284  0.0000E+00  0.1742E+01
     -0.104  0.8383E+00  0.1893E+01
      0.076  0.0000E+00  0.1902E+01
      0.256  0.0000E+00  0.1902E+01
      0.436  0.1042E+00  0.1939E+01
      0.616  0.4167E+00  0.2014E+01
      0.796  0.6415E-09  0.2014E+01
      0.976  0.0000E+00  0.2027E+01
      1.156  0.5209E-01  0.2036E+01
      1.336  0.1563E+00  0.2064E+01
      1.516  0.2083E+00  0.2158E+01
      1.696  0.1108E-12  0.2214E+01
      1.876  0.0000E+00  0.2233E+01
      2.056  0.5218E-01  0.2242E+01
      2.236  0.5159E+00  0.2373E+01
      2.416  0.0000E+00  0.2430E+01
      2.596  0.2084E+00  0.2505E+01
      2.776  0.1795E+00  0.2537E+01
      2.956  0.2084E+00  0.2608E+01
      3.135  0.3710E+00  0.2731E+01
      3.315  0.0000E+00  0.2733E+01
      3.495  0.2431E+00  0.2777E+01
      3.675  0.1042E+00  0.2795E+01
      3.855  0.0000E+00  0.2800E+01
      4.035  0.0000E+00  0.2800E+01
      4.215  0.0000E+00  0.2800E+01
      4.395  0.0000E+00  0.2800E+01
      4.575  0.0000E+00  0.2800E+01
      4.755  0.0000E+00  0.2800E+01
      4.935  0.0000E+00  0.2800E+01
      5.115  0.0000E+00  0.2800E+01
      5.295  0.0000E+00  0.2800E+01
      5.475  0.0000E+00  0.2800E+01
      5.655  0.0000E+00  0.2800E+01
      5.835  0.0000E+00  0.2800E+01
      6.015  0.0000E+00  0.2800E+01
      6.195  0.0000E+00  0.2800E+01
      6.375  0.0000E+00  0.2800E+01
      6.555  0.2431E-01  0.2804E+01
      6.735  0.0000E+00  0.2805E+01
      6.915  0.0000E+00  0.2805E+01
      7.095  0.0000E+00  0.2805E+01
      7.275  0.0000E+00  0.2814E+01
      7.455  0.0000E+00  0.2814E+01
      7.635  0.1861E+00  0.2848E+01
      7.815  0.0000E+00  0.2853E+01
      7.995  0.0000E+00  0.2858E+01
      8.175  0.4167E+00  0.2933E+01
      8.355  0.0000E+00  0.2948E+01
      8.534  0.0000E+00  0.2948E+01
      8.714  0.2699E-01  0.2953E+01
      8.894  0.5209E-01  0.2980E+01
      9.074  0.6978E+00  0.3105E+01
      9.254  0.5255E-01  0.3130E+01
      9.434  0.1042E+00  0.3242E+01
      9.614  0.2721E-05  0.3242E+01
      9.794  0.6438E-06  0.3280E+01
      9.974  0.0000E+00  0.3317E+01
     10.154  0.2084E+00  0.3355E+01
     10.334  0.2284E-11  0.3392E+01
     10.514  0.2084E+00  0.3486E+01
     10.694  0.3473E-01  0.3502E+01
     10.874  0.1641E+00  0.3531E+01
     11.054  0.0000E+00  0.3558E+01
     11.234  0.0000E+00  0.3558E+01
     11.414  0.0000E+00  0.3558E+01
     11.594  0.1504E+00  0.3585E+01
     11.774  0.0000E+00  0.3600E+01
     11.954  0.0000E+00  0.3600E+01
     12.134  0.0000E+00  0.3600E+01
     12.314  0.0000E+00  0.3600E+01
     12.494  0.0000E+00  0.3600E+01
     12.674  0.0000E+00  0.3600E+01
     12.854  0.0000E+00  0.3600E+01
     13.034  0.0000E+00  0.3600E+01
     13.214  0.0000E+00  0.3600E+01
     13.394  0.0000E+00  0.3600E+01
     13.574  0.0000E+00  0.3600E+01
     13.754  0.0000E+00  0.3600E+01
     13.933  0.0000E+00  0.3600E+01
     14.113  0.0000E+00  0.3600E+01
