 vasp.5.3.5 31Mar14 (build Nov 07 2014 11:36:17) complex                        
  
 executed on             LinuxIFC date 2015.10.15  01:05:12
 running on   20 total cores
 distrk:  each k-point on   20 cores,    1 groups
 distr:  one band on NCORES_PER_BAND=   5 cores,    4 groups


--------------------------------------------------------------------------------------------------------


 INCAR:
 POTCAR:    PAW_PBE Mg_pv 13Apr2007               
 POTCAR:    PAW_PBE S 06Sep2000                   
 POTCAR:    PAW_PBE Mg_pv 13Apr2007               
   VRHFIN =Mg: p6s2                                                             
   LEXCH  = PE                                                                  
   EATOM  =  1056.7344 eV,   77.6678 Ry                                         
                                                                                
   TITEL  = PAW_PBE Mg_pv 13Apr2007                                             
   LULTRA =        F    use ultrasoft PP ?                                      
   IUNSCR =        1    unscreen: 0-lin 1-nonlin 2-no                           
   RPACOR =    1.500    partial core radius                                     
   POMASS =   24.305; ZVAL   =    8.000    mass and valenz                      
   RCORE  =    2.000    outmost cutoff radius                                   
   RWIGS  =    2.000; RWIGS  =    1.058    wigner-seitz radius (au A)           
   ENMAX  =  403.929; ENMIN  =  302.947 eV                                      
   RCLOC  =    1.506    cutoff for local pot                                    
   LCOR   =        T    correct aug charges                                     
   LPAW   =        T    paw PP                                                  
   EAUG   =  758.780                                                            
   DEXC   =    0.000                                                            
   RMAX   =    2.045    core radius for proj-oper                               
   RAUG   =    1.300    factor for augmentation sphere                          
   RDEP   =    2.025    radius for radial grids                                 
   RDEPT  =    1.557    core radius for aug-charge                              
                                                                                
   Atomic configuration                                                         
    5 entries                                                                   
     n  l   j            E        occ.                                          
     1  0  0.50     -1259.6230   2.0000                                         
     2  0  0.50       -79.8442   2.0000                                         
     2  1  1.50       -46.6121   6.0000                                         
     3  0  0.50        -4.7055   2.0000                                         
     3  2  1.50        -1.3606   0.0000                                         
   Description                                                                  
     l       E           TYP  RCUT    TYP  RCUT                                 
     1    -46.6121073     23  1.600                                             
     1      2.7211652     23  1.600                                             
     0     -4.7054661     23  2.000                                             
     0     61.2262170     23  2.000                                             
     2     -1.3605826     23  2.000                                             
  local pseudopotential read in
  partial core-charges read in
  partial kinetic energy density read in
  atomic valenz-charges read in
  non local Contribution for L=           1  read in
    real space projection operators read in
  non local Contribution for L=           1  read in
    real space projection operators read in
  non local Contribution for L=           0  read in
    real space projection operators read in
  non local Contribution for L=           0  read in
    real space projection operators read in
  non local Contribution for L=           2  read in
    real space projection operators read in
    PAW grid and wavefunctions read in
 
   number of l-projection  operators is LMAX  =           5
   number of lm-projection operators is LMMAX =          13
 
 POTCAR:    PAW_PBE S 06Sep2000                   
   VRHFIN =S : s2p4                                                             
   LEXCH  = PE                                                                  
   EATOM  =   276.8230 eV,   20.3459 Ry                                         
                                                                                
   TITEL  = PAW_PBE S 06Sep2000                                                 
   LULTRA =        F    use ultrasoft PP ?                                      
   IUNSCR =        1    unscreen: 0-lin 1-nonlin 2-no                           
   RPACOR =    1.500    partial core radius                                     
   POMASS =   32.066; ZVAL   =    6.000    mass and valenz                      
   RCORE  =    1.900    outmost cutoff radius                                   
   RWIGS  =    2.200; RWIGS  =    1.164    wigner-seitz radius (au A)           
   ENMAX  =  258.689; ENMIN  =  194.016 eV                                      
   ICORE  =        2    local potential                                         
   LCOR   =        T    correct aug charges                                     
   LPAW   =        T    paw PP                                                  
   EAUG   =  335.092                                                            
   DEXC   =    0.000                                                            
   RMAX   =    1.942    core radius for proj-oper                               
   RAUG   =    1.300    factor for augmentation sphere                          
   RDEP   =    1.954    radius for radial grids                                 
   RDEPT  =    1.744    core radius for aug-charge                              
                                                                                
   Atomic configuration                                                         
    6 entries                                                                   
     n  l   j            E        occ.                                          
     1  0  0.50     -2405.8406   2.0000                                         
     2  0  0.50      -211.7007   2.0000                                         
     2  1  1.50      -156.4958   6.0000                                         
     3  0  0.50       -17.2562   2.0000                                         
     3  1  0.50        -7.0085   4.0000                                         
     3  2  1.50        -6.8029   0.0000                                         
   Description                                                                  
     l       E           TYP  RCUT    TYP  RCUT                                 
     0    -17.2561641     23  1.900                                             
     0    -15.8743224     23  1.900                                             
     1     -7.0085400     23  1.900                                             
     1     -2.7779785     23  1.900                                             
     2     -6.8029130     23  1.900                                             
  local pseudopotential read in
  partial core-charges read in
  partial kinetic energy density read in
  atomic valenz-charges read in
  non local Contribution for L=           0  read in
    real space projection operators read in
  non local Contribution for L=           0  read in
    real space projection operators read in
  non local Contribution for L=           1  read in
    real space projection operators read in
  non local Contribution for L=           1  read in
    real space projection operators read in
    PAW grid and wavefunctions read in
 
   number of l-projection  operators is LMAX  =           4
   number of lm-projection operators is LMMAX =           8
 

 ----------------------------------------------------------------------------- 
|                                                                             |
|  ADVICE TO THIS USER RUNNING 'VASP/VAMP'   (HEAR YOUR MASTER'S VOICE ...):  |
|                                                                             |
|      You enforced a specific xc-type in the INCAR file,                     |
|      a different type was found on the POTCAR file                          |
|          I HOPE YOU KNOW, WHAT YOU ARE  DOING                               |
|                                                                             |
 ----------------------------------------------------------------------------- 

  PAW_PBE Mg_pv 13Apr2007               :
 energy of atom  1       EATOM=-1056.7344
 kinetic energy error for atom=    0.0336 (will be added to EATOM!!)
  PAW_PBE S 06Sep2000                   :
 energy of atom  2       EATOM= -276.8230
 kinetic energy error for atom=    0.0015 (will be added to EATOM!!)
 
 
 POSCAR:  Mg S                                   
  positions in direct lattice
  No initial velocities read in
 exchange correlation table for  LEXCH =       14
   RHO(1)=    0.500       N(1)  =     2000
   RHO(2)=  100.500       N(2)  =     4000
 


--------------------------------------------------------------------------------------------------------


 ion  position               nearest neighbor table
   1  0.000  0.000  0.000-   5 2.57   7 2.57   8 2.57   7 2.57   8 2.57   5 2.57
   2  0.000  0.500  0.500-   6 2.57   7 2.57   8 2.57   8 2.57   7 2.57   6 2.57
   3  0.500  0.000  0.500-   5 2.57   6 2.57   7 2.57   5 2.57   6 2.57   7 2.57
   4  0.500  0.500  0.000-   5 2.57   6 2.57   8 2.57   6 2.57   5 2.57   8 2.57
   5  0.500  0.000  0.000-   1 2.57   3 2.57   4 2.57   3 2.57   4 2.57   1 2.57
   6  0.500  0.500  0.500-   2 2.57   3 2.57   4 2.57   4 2.57   3 2.57   2 2.57
   7  0.000  0.000  0.500-   1 2.57   2 2.57   3 2.57   1 2.57   2 2.57   3 2.57
   8  0.000  0.500  0.000-   1 2.57   2 2.57   4 2.57   2 2.57   1 2.57   4 2.57
 
  LATTYP: Found a simple cubic cell.
 ALAT       =     5.1462001525
  
  Lattice vectors:
  
 A1 = (   5.1462001525,   0.0000000000,   0.0000000000)
 A2 = (   0.0000000000,   5.1462001525,   0.0000000000)
 A3 = (   0.0000000000,   0.0000000000,   5.1462001525)


Analysis of symmetry for initial positions (statically):
=====================================================================
 Subroutine PRICEL returns following result:
 
  LATTYP: Found a face centered cubic cell.
 ALAT       =     5.1462001525
  
  Lattice vectors:
  
 A1 = (   2.5731000763,   2.5731000763,   0.0000000000)
 A2 = (   2.5731000763,   0.0000000000,  -2.5731000763)
 A3 = (   0.0000000000,   2.5731000763,  -2.5731000763)
 
   4 primitive cells build up your supercell.
 

 Routine SETGRP: Setting up the symmetry group for a 
 simple cubic supercell.


 Subroutine GETGRP returns: Found 48 space group operations
 (whereof 48 operations were pure point group operations)
 out of a pool of 48 trial point group operations.


The static configuration has the point symmetry O_h .


Analysis of symmetry for dynamics (positions and initial velocities):
=====================================================================
 Subroutine PRICEL returns following result:
 
  LATTYP: Found a face centered cubic cell.
 ALAT       =     5.1462001525
  
  Lattice vectors:
  
 A1 = (   2.5731000763,   2.5731000763,   0.0000000000)
 A2 = (   2.5731000763,   0.0000000000,  -2.5731000763)
 A3 = (   0.0000000000,   2.5731000763,  -2.5731000763)
 
   4 primitive cells build up your supercell.
 

 Routine SETGRP: Setting up the symmetry group for a 
 simple cubic supercell.


 Subroutine GETGRP returns: Found 48 space group operations
 (whereof 48 operations were pure point group operations)
 out of a pool of 48 trial point group operations.


The dynamic configuration has the point symmetry O_h .
 
 
 KPOINTS: Automatic mesh                          

Automatic generation of k-mesh.
Space group operators:
 irot       det(A)        alpha          n_x          n_y          n_z        tau_x        tau_y        tau_z
    1     1.000000     0.000000     1.000000     0.000000     0.000000     0.000000     0.000000     0.000000
    2    -1.000000     0.000000     1.000000     0.000000     0.000000     0.000000     0.000000     0.000000
    3     1.000000   120.000000    -0.577350    -0.577350    -0.577350     0.000000     0.000000     0.000000
    4    -1.000000   120.000000    -0.577350    -0.577350    -0.577350     0.000000     0.000000     0.000000
    5     1.000000   120.000000     0.577350     0.577350     0.577350     0.000000     0.000000     0.000000
    6    -1.000000   120.000000     0.577350     0.577350     0.577350     0.000000     0.000000     0.000000
    7     1.000000    90.000000     0.000000     0.000000    -1.000000     0.000000     0.000000     0.000000
    8    -1.000000    90.000000     0.000000     0.000000    -1.000000     0.000000     0.000000     0.000000
    9     1.000000   180.000000     0.000000     0.707107     0.707107     0.000000     0.000000     0.000000
   10    -1.000000   180.000000     0.000000     0.707107     0.707107     0.000000     0.000000     0.000000
   11     1.000000    90.000000     0.000000     1.000000     0.000000     0.000000     0.000000     0.000000
   12    -1.000000    90.000000     0.000000     1.000000     0.000000     0.000000     0.000000     0.000000
   13     1.000000   180.000000     0.000000     0.000000     1.000000     0.000000     0.000000     0.000000
   14    -1.000000   180.000000     0.000000     0.000000     1.000000     0.000000     0.000000     0.000000
   15     1.000000   120.000000    -0.577350     0.577350     0.577350     0.000000     0.000000     0.000000
   16    -1.000000   120.000000    -0.577350     0.577350     0.577350     0.000000     0.000000     0.000000
   17     1.000000   120.000000    -0.577350     0.577350    -0.577350     0.000000     0.000000     0.000000
   18    -1.000000   120.000000    -0.577350     0.577350    -0.577350     0.000000     0.000000     0.000000
   19     1.000000    90.000000     0.000000     0.000000     1.000000     0.000000     0.000000     0.000000
   20    -1.000000    90.000000     0.000000     0.000000     1.000000     0.000000     0.000000     0.000000
   21     1.000000    90.000000    -1.000000     0.000000     0.000000     0.000000     0.000000     0.000000
   22    -1.000000    90.000000    -1.000000     0.000000     0.000000     0.000000     0.000000     0.000000
   23     1.000000   180.000000     0.707107     0.000000     0.707107     0.000000     0.000000     0.000000
   24    -1.000000   180.000000     0.707107     0.000000     0.707107     0.000000     0.000000     0.000000
   25     1.000000   120.000000     0.577350    -0.577350     0.577350     0.000000     0.000000     0.000000
   26    -1.000000   120.000000     0.577350    -0.577350     0.577350     0.000000     0.000000     0.000000
   27     1.000000   120.000000    -0.577350    -0.577350     0.577350     0.000000     0.000000     0.000000
   28    -1.000000   120.000000    -0.577350    -0.577350     0.577350     0.000000     0.000000     0.000000
   29     1.000000   180.000000     1.000000     0.000000     0.000000     0.000000     0.000000     0.000000
   30    -1.000000   180.000000     1.000000     0.000000     0.000000     0.000000     0.000000     0.000000
   31     1.000000    90.000000     0.000000    -1.000000     0.000000     0.000000     0.000000     0.000000
   32    -1.000000    90.000000     0.000000    -1.000000     0.000000     0.000000     0.000000     0.000000
   33     1.000000   180.000000     0.707107     0.707107     0.000000     0.000000     0.000000     0.000000
   34    -1.000000   180.000000     0.707107     0.707107     0.000000     0.000000     0.000000     0.000000
   35     1.000000    90.000000     1.000000     0.000000     0.000000     0.000000     0.000000     0.000000
   36    -1.000000    90.000000     1.000000     0.000000     0.000000     0.000000     0.000000     0.000000
   37     1.000000   120.000000     0.577350    -0.577350    -0.577350     0.000000     0.000000     0.000000
   38    -1.000000   120.000000     0.577350    -0.577350    -0.577350     0.000000     0.000000     0.000000
   39     1.000000   180.000000     0.000000     1.000000     0.000000     0.000000     0.000000     0.000000
   40    -1.000000   180.000000     0.000000     1.000000     0.000000     0.000000     0.000000     0.000000
   41     1.000000   120.000000     0.577350     0.577350    -0.577350     0.000000     0.000000     0.000000
   42    -1.000000   120.000000     0.577350     0.577350    -0.577350     0.000000     0.000000     0.000000
   43     1.000000   180.000000     0.000000    -0.707107     0.707107     0.000000     0.000000     0.000000
   44    -1.000000   180.000000     0.000000    -0.707107     0.707107     0.000000     0.000000     0.000000
   45     1.000000   180.000000     0.707107    -0.707107     0.000000     0.000000     0.000000     0.000000
   46    -1.000000   180.000000     0.707107    -0.707107     0.000000     0.000000     0.000000     0.000000
   47     1.000000   180.000000     0.707107     0.000000    -0.707107     0.000000     0.000000     0.000000
   48    -1.000000   180.000000     0.707107     0.000000    -0.707107     0.000000     0.000000     0.000000
 
 Subroutine IBZKPT returns following result:
 ===========================================
 
 Found     10 irreducible k-points:
 
 Following reciprocal coordinates:
            Coordinates               Weight
  0.000000  0.000000  0.000000      1.000000
  0.250000  0.000000  0.000000      6.000000
  0.500000  0.000000  0.000000      3.000000
  0.250000  0.250000  0.000000     12.000000
  0.500000  0.250000  0.000000     12.000000
  0.500000  0.500000  0.000000      3.000000
  0.250000  0.250000  0.250000      8.000000
  0.500000  0.250000  0.250000     12.000000
  0.500000  0.500000  0.250000      6.000000
  0.500000  0.500000  0.500000      1.000000
 
 Following cartesian coordinates:
            Coordinates               Weight
  0.000000  0.000000  0.000000      1.000000
  0.048580  0.000000  0.000000      6.000000
  0.097159  0.000000  0.000000      3.000000
  0.048580  0.048580  0.000000     12.000000
  0.097159  0.048580  0.000000     12.000000
  0.097159  0.097159  0.000000      3.000000
  0.048580  0.048580  0.048580      8.000000
  0.097159  0.048580  0.048580     12.000000
  0.097159  0.097159  0.048580      6.000000
  0.097159  0.097159  0.097159      1.000000
 


--------------------------------------------------------------------------------------------------------




 Dimension of arrays:
   k-points           NKPTS =     10   k-points in BZ     NKDIM =     10   number of bands    NBANDS=     36
   number of dos      NEDOS =    301   number of ions     NIONS =      8
   non local maximal  LDIM  =      5   non local SUM 2l+1 LMDIM =     13
   total plane-waves  NPLWV =  64000
   max r-space proj   IRMAX =      1   max aug-charges    IRDMAX= 118541
   dimension x,y,z NGX =    40 NGY =   40 NGZ =   40
   dimension x,y,z NGXF=    80 NGYF=   80 NGZF=   80
   support grid    NGXF=   160 NGYF=  160 NGZF=  160
   ions per type =               4   4
 NGX,Y,Z   is equivalent  to a cutoff of  12.92, 12.92, 12.92 a.u.
 NGXF,Y,Z  is equivalent  to a cutoff of  25.84, 25.84, 25.84 a.u.


 I would recommend the setting:
   dimension x,y,z NGX =    38 NGY =   38 NGZ =   38
 SYSTEM =  unknown system                          
 POSCAR =   Mg S                                   

 Startparameter for this run:
   NWRITE =      2    write-flag & timer
   PREC   = accura    normal or accurate (medium, high low for compatibility)
   ISTART =      0    job   : 0-new  1-cont  2-samecut
   ICHARG =      2    charge: 1-file 2-atom 10-const
   ISPIN  =      1    spin polarized calculation?
   LNONCOLLINEAR =      F non collinear calculations
   LSORBIT =      F    spin-orbit coupling
   INIWAV =      1    electr: 0-lowe 1-rand  2-diag
   LASPH  =      F    aspherical Exc in radial PAW
   METAGGA=      F    non-selfconsistent MetaGGA calc.

 Electronic Relaxation 1
   ENCUT  =  525.1 eV  38.59 Ry    6.21 a.u.   9.62  9.62  9.62*2*pi/ulx,y,z
   ENINI  =  525.1     initial cutoff
   ENAUG  =  758.8 eV  augmentation charge cutoff
   NELM   =     60;   NELMIN=  5; NELMDL= -5     # of ELM steps 
   EDIFF  = 0.1E-07   stopping-criterion for ELM
   LREAL  =      F    real-space projection
   NLSPLINE    = F    spline interpolate recip. space projectors
   LCOMPAT=      F    compatible to vasp.4.4
   GGA_COMPAT  = T    GGA compatible to vasp.4.4-vasp.4.6
   LMAXPAW     = -100 max onsite density
   LMAXMIX     =    2 max onsite mixed and CHGCAR
   VOSKOWN=      0    Vosko Wilk Nusair interpolation
   ROPT   =    0.00000   0.00000
 Ionic relaxation
   EDIFFG = -.1E-07   stopping-criterion for IOM
   NSW    =     20    number of steps for IOM
   NBLOCK =      1;   KBLOCK =     20    inner block; outer block 
   IBRION =      2    ionic relax: 0-MD 1-quasi-New 2-CG
   NFREE  =      1    steps in history (QN), initial steepest desc. (CG)
   ISIF   =      4    stress and relaxation
   IWAVPR =     11    prediction:  0-non 1-charg 2-wave 3-comb
   ISYM   =      2    0-nonsym 1-usesym 2-fastsym
   LCORR  =      T    Harris-Foulkes like correction to forces

   POTIM  = 0.5000    time-step for ionic-motion
   TEIN   =    0.0    initial temperature
   TEBEG  =    0.0;   TEEND  =   0.0 temperature during run
   SMASS  =  -3.00    Nose mass-parameter (am)
   estimated Nose-frequenzy (Omega)   =  0.10E-29 period in steps =****** mass=  -0.605E-27a.u.
   SCALEE = 1.0000    scale energy and forces
   NPACO  =    256;   APACO  = 16.0  distance and # of slots for P.C.
   PSTRESS=    0.0 pullay stress

  Mass of Ions in am
   POMASS =  24.30 32.07
  Ionic Valenz
   ZVAL   =   8.00  6.00
  Atomic Wigner-Seitz radii
   RWIGS  =  -1.00 -1.00
  virtual crystal weights 
   VCA    =   1.00  1.00
   NELECT =      56.0000    total number of electrons
   NUPDOWN=      -1.0000    fix difference up-down

 DOS related values:
   EMIN   =  10.00;   EMAX   =-10.00  energy-range for DOS
   EFERMI =   0.00
   ISMEAR =     0;   SIGMA  =   0.01  broadening in eV -4-tet -1-fermi 0-gaus

 Electronic relaxation 2 (details)
   IALGO  =     38    algorithm
   LDIAG  =      T    sub-space diagonalisation (order eigenvalues)
   LSUBROT=      F    optimize rotation matrix (better conditioning)
   TURBO    =      0    0=normal 1=particle mesh
   IRESTART =      0    0=no restart 2=restart with 2 vectors
   NREBOOT  =      0    no. of reboots
   NMIN     =      0    reboot dimension
   EREF     =   0.00    reference energy to select bands
   IMIX   =      4    mixing-type and parameters
     AMIX     =   0.40;   BMIX     =  1.00
     AMIX_MAG =   1.60;   BMIX_MAG =  1.00
     AMIN     =   0.10
     WC   =   100.;   INIMIX=   1;  MIXPRE=   1;  MAXMIX= -45

 Intra band minimization:
   WEIMIN = 0.0010     energy-eigenvalue tresh-hold
   EBREAK =  0.69E-11  absolut break condition
   DEPER  =   0.30     relativ break condition  

   TIME   =   0.40     timestep for ELM

  volume/ion in A,a.u.               =      17.04       114.97
  Fermi-wavevector in a.u.,A,eV,Ry     =   1.217075  2.299939 20.153938  1.481273
  Thomas-Fermi vector in A             =   2.352408
 
 Write flags
   LWAVE  =      F    write WAVECAR
   LCHARG =      F    write CHGCAR
   LVTOT  =      F    write LOCPOT, total local potential
   LVHAR  =      F    write LOCPOT, Hartree potential only
   LELF   =      F    write electronic localiz. function (ELF)
   LORBIT =      0    0 simple, 1 ext, 2 COOP (PROOUT)


 Dipole corrections
   LMONO  =      F    monopole corrections only (constant potential shift)
   LDIPOL =      F    correct potential (dipole corrections)
   IDIPOL =      0    1-x, 2-y, 3-z, 4-all directions 
   EPSILON=  1.0000000 bulk dielectric constant

 Exchange correlation treatment:
   GGA     =    PS    GGA type
   LEXCH   =    14    internal setting for exchange type
   VOSKOWN=      0    Vosko Wilk Nusair interpolation
   LHFCALC =     F    Hartree Fock is set to
   LHFONE  =     F    Hartree Fock one center treatment
   AEXX    =    0.0000 exact exchange contribution

 Linear response parameters
   LEPSILON=     F    determine dielectric tensor
   LRPA    =     F    only Hartree local field effects (RPA)
   LNABLA  =     F    use nabla operator in PAW spheres
   LVEL    =     F    velocity operator in full k-point grid
   LINTERFAST=   F  fast interpolation
   KINTER  =     0    interpolate to denser k-point grid
   CSHIFT  =0.1000    complex shift for real part using Kramers Kronig
   OMEGAMAX=  -1.0    maximum frequency
   DEG_THRESHOLD= 0.2000000E-02 threshold for treating states as degnerate
   RTIME   =    0.100 relaxation time in fs

 Orbital magnetization related:
   ORBITALMAG=     F  switch on orbital magnetization
   LCHIMAG   =     F  perturbation theory with respect to B field
   DQ        =  0.001000  dq finite difference perturbation B field



--------------------------------------------------------------------------------------------------------


 conjugate gradient relaxation of ions
 charge density and potential will be updated during run
 non-spin polarized calculation
 Variant of blocked Davidson
 Davidson routine will perform the subspace rotation
 perform sub-space diagonalisation
    after iterative eigenvector-optimisation
 modified Broyden-mixing scheme, WC =      100.0
 initial mixing is a Kerker type mixing with AMIX =  0.4000 and BMIX =      1.0000
 Hartree-type preconditioning will be used
 using additional bands            8
 reciprocal scheme for non local part
 use partial core corrections
 calculate Harris-corrections to forces 
   (improved forces if not selfconsistent)
 use gradient corrections 
 use of overlap-Matrix (Vanderbilt PP)
 Gauss-broadening in eV      SIGMA  =   0.01


--------------------------------------------------------------------------------------------------------


  energy-cutoff  :      525.11
  volume of cell :      136.29
      direct lattice vectors                 reciprocal lattice vectors
     5.146200153  0.000000000  0.000000000     0.194318132  0.000000000  0.000000000
     0.000000000  5.146200153  0.000000000     0.000000000  0.194318132  0.000000000
     0.000000000  0.000000000  5.146200153     0.000000000  0.000000000  0.194318132

  length of vectors
     5.146200153  5.146200153  5.146200153     0.194318132  0.194318132  0.194318132


 
 k-points in units of 2pi/SCALE and weight: Automatic mesh                          
   0.00000000  0.00000000  0.00000000       0.016
   0.04857953  0.00000000  0.00000000       0.094
   0.09715907  0.00000000  0.00000000       0.047
   0.04857953  0.04857953  0.00000000       0.188
   0.09715907  0.04857953  0.00000000       0.188
   0.09715907  0.09715907  0.00000000       0.047
   0.04857953  0.04857953  0.04857953       0.125
   0.09715907  0.04857953  0.04857953       0.188
   0.09715907  0.09715907  0.04857953       0.094
   0.09715907  0.09715907  0.09715907       0.016
 
 k-points in reciprocal lattice and weights: Automatic mesh                          
   0.00000000  0.00000000  0.00000000       0.016
   0.25000000  0.00000000  0.00000000       0.094
   0.50000000  0.00000000  0.00000000       0.047
   0.25000000  0.25000000  0.00000000       0.188
   0.50000000  0.25000000  0.00000000       0.188
   0.50000000  0.50000000  0.00000000       0.047
   0.25000000  0.25000000  0.25000000       0.125
   0.50000000  0.25000000  0.25000000       0.188
   0.50000000  0.50000000  0.25000000       0.094
   0.50000000  0.50000000  0.50000000       0.016
 
 position of ions in fractional coordinates (direct lattice) 
   0.00000000  0.00000000  0.00000000
   0.00000000  0.50000000  0.50000000
   0.50000000  0.00000000  0.50000000
   0.50000000  0.50000000  0.00000000
   0.50000000  0.00000000  0.00000000
   0.50000000  0.50000000  0.50000000
   0.00000000  0.00000000  0.50000000
   0.00000000  0.50000000  0.00000000
 
 position of ions in cartesian coordinates  (Angst):
   0.00000000  0.00000000  0.00000000
   0.00000000  2.57310008  2.57310008
   2.57310008  0.00000000  2.57310008
   2.57310008  2.57310008  0.00000000
   2.57310008  0.00000000  0.00000000
   2.57310008  2.57310008  2.57310008
   0.00000000  0.00000000  2.57310008
   0.00000000  2.57310008  0.00000000
 


--------------------------------------------------------------------------------------------------------


 k-point  1 :   0.0000 0.0000 0.0000  plane waves:    3743
 k-point  2 :   0.2500 0.0000 0.0000  plane waves:    3719
 k-point  3 :   0.5000 0.0000 0.0000  plane waves:    3764
 k-point  4 :   0.2500 0.2500 0.0000  plane waves:    3724
 k-point  5 :   0.5000 0.2500 0.0000  plane waves:    3728
 k-point  6 :   0.5000 0.5000 0.0000  plane waves:    3676
 k-point  7 :   0.2500 0.2500 0.2500  plane waves:    3728
 k-point  8 :   0.5000 0.2500 0.2500  plane waves:    3738
 k-point  9 :   0.5000 0.5000 0.2500  plane waves:    3700
 k-point 10 :   0.5000 0.5000 0.5000  plane waves:    3648

 maximum and minimum number of plane-waves per node :       766      728

 maximum number of plane-waves:      3764
 maximum index in each direction: 
   IXMAX=    9   IYMAX=    9   IZMAX=    9
   IXMIN=  -10   IYMIN=  -10   IZMIN=  -10

 NGX is ok and might be reduce to  40
 NGY is ok and might be reduce to  40
 NGZ is ok and might be reduce to  40

 parallel 3D FFT for wavefunctions:
    minimum data exchange during FFTs selected (reduces bandwidth)
 parallel 3D FFT for charge:
    minimum data exchange during FFTs selected (reduces bandwidth)


 total amount of memory used by VASP on root node    38938. kBytes
========================================================================

   base      :      30000. kBytes
   nonl-proj :       1669. kBytes
   fftplans  :       4154. kBytes
   grid      :       1976. kBytes
   one-center:         16. kBytes
   wavefun   :       1123. kBytes
 
     INWAV:  cpu time    0.00: real time    0.00
 Broyden mixing: mesh for mixing (old mesh)
   NGX = 19   NGY = 19   NGZ = 19
  (NGX  = 80   NGY  = 80   NGZ  = 80)
  gives a total of   6859 points

 initial charge density was supplied:
 charge density of overlapping atoms calculated
 number of electron      56.0000000 magnetization 
 keeping initial charge density in first step


--------------------------------------------------------------------------------------------------------


 Maximum index for augmentation-charges         6079 (set IRDMAX)


--------------------------------------------------------------------------------------------------------


 First call to EWALD:  gamma=   0.344
 Maximum number of real-space cells 3x 3x 3
 Maximum number of reciprocal cells 3x 3x 3

 FEWALD executed in parallel
    FEWALD:  cpu time    0.00: real time    0.00


----------------------------------------- Iteration    1(   1)  ---------------------------------------


    POTLOK:  cpu time    0.02: real time    0.02
    SETDIJ:  cpu time    0.03: real time    0.03
     EDDAV:  cpu time    0.27: real time    0.27
       DOS:  cpu time    0.00: real time    0.00
    --------------------------------------------
      LOOP:  cpu time    0.33: real time    0.34

 eigenvalue-minimisations  :   880
 total energy-change (2. order) : 0.4632694E+03  (-0.3450614E+04)
 number of electron      56.0000000 magnetization 
 augmentation part       56.0000000 magnetization 

 Free energy of the ion-electron system (eV)
  ---------------------------------------------------
  alpha Z        PSCENC =       155.79145076
  Ewald energy   TEWEN  =     -3151.26826959
  -Hartree energ DENC   =     -1155.21784685
  -exchange      EXHF   =         0.00000000
  -V(xc)+E(xc)   XCENC  =       159.70105748
  PAW double counting   =      3462.71711756    -3919.80126840
  entropy T*S    EENTRO =        -0.00074092
  eigenvalues    EBANDS =      -410.35756319
  atomic energy  EATOM  =      5321.70543053
  ---------------------------------------------------
  free energy    TOTEN  =       463.26936737 eV

  energy without entropy =      463.27010829  energy(sigma->0) =      463.26973783


--------------------------------------------------------------------------------------------------------




----------------------------------------- Iteration    1(   2)  ---------------------------------------


     EDDAV:  cpu time    0.26: real time    0.26
       DOS:  cpu time    0.00: real time    0.00
    --------------------------------------------
      LOOP:  cpu time    0.26: real time    0.26

 eigenvalue-minimisations  :   868
 total energy-change (2. order) :-0.4672672E+03  (-0.4535803E+03)
 number of electron      56.0000000 magnetization 
 augmentation part       56.0000000 magnetization 

 Free energy of the ion-electron system (eV)
  ---------------------------------------------------
  alpha Z        PSCENC =       155.79145076
  Ewald energy   TEWEN  =     -3151.26826959
  -Hartree energ DENC   =     -1155.21784685
  -exchange      EXHF   =         0.00000000
  -V(xc)+E(xc)   XCENC  =       159.70105748
  PAW double counting   =      3462.71711756    -3919.80126840
  entropy T*S    EENTRO =         0.00000000
  eigenvalues    EBANDS =      -877.62547023
  atomic energy  EATOM  =      5321.70543053
  ---------------------------------------------------
  free energy    TOTEN  =        -3.99779874 eV

  energy without entropy =       -3.99779874  energy(sigma->0) =       -3.99779874


--------------------------------------------------------------------------------------------------------




----------------------------------------- Iteration    1(   3)  ---------------------------------------


     EDDAV:  cpu time    0.25: real time    0.25
       DOS:  cpu time    0.00: real time    0.00
    --------------------------------------------
      LOOP:  cpu time    0.25: real time    0.26

 eigenvalue-minimisations  :   856
 total energy-change (2. order) :-0.3261242E+02  (-0.3238641E+02)
 number of electron      56.0000000 magnetization 
 augmentation part       56.0000000 magnetization 

 Free energy of the ion-electron system (eV)
  ---------------------------------------------------
  alpha Z        PSCENC =       155.79145076
  Ewald energy   TEWEN  =     -3151.26826959
  -Hartree energ DENC   =     -1155.21784685
  -exchange      EXHF   =         0.00000000
  -V(xc)+E(xc)   XCENC  =       159.70105748
  PAW double counting   =      3462.71711756    -3919.80126840
  entropy T*S    EENTRO =         0.00000000
  eigenvalues    EBANDS =      -910.23788634
  atomic energy  EATOM  =      5321.70543053
  ---------------------------------------------------
  free energy    TOTEN  =       -36.61021486 eV

  energy without entropy =      -36.61021486  energy(sigma->0) =      -36.61021486


--------------------------------------------------------------------------------------------------------




----------------------------------------- Iteration    1(   4)  ---------------------------------------


     EDDAV:  cpu time    0.27: real time    0.27
       DOS:  cpu time    0.00: real time    0.00
    --------------------------------------------
      LOOP:  cpu time    0.27: real time    0.27

 eigenvalue-minimisations  :   904
 total energy-change (2. order) :-0.1035372E+01  (-0.1033225E+01)
 number of electron      56.0000000 magnetization 
 augmentation part       56.0000000 magnetization 

 Free energy of the ion-electron system (eV)
  ---------------------------------------------------
  alpha Z        PSCENC =       155.79145076
  Ewald energy   TEWEN  =     -3151.26826959
  -Hartree energ DENC   =     -1155.21784685
  -exchange      EXHF   =         0.00000000
  -V(xc)+E(xc)   XCENC  =       159.70105748
  PAW double counting   =      3462.71711756    -3919.80126840
  entropy T*S    EENTRO =         0.00000000
  eigenvalues    EBANDS =      -911.27325876
  atomic energy  EATOM  =      5321.70543053
  ---------------------------------------------------
  free energy    TOTEN  =       -37.64558727 eV

  energy without entropy =      -37.64558727  energy(sigma->0) =      -37.64558727


--------------------------------------------------------------------------------------------------------




----------------------------------------- Iteration    1(   5)  ---------------------------------------


     EDDAV:  cpu time    0.25: real time    0.25
       DOS:  cpu time    0.00: real time    0.00
    CHARGE:  cpu time    0.06: real time    0.06
    MIXING:  cpu time    0.00: real time    0.00
    --------------------------------------------
      LOOP:  cpu time    0.31: real time    0.32

 eigenvalue-minimisations  :   852
 total energy-change (2. order) :-0.2484587E-01  (-0.2483939E-01)
 number of electron      55.9999997 magnetization 
 augmentation part       13.1804658 magnetization 

 Broyden mixing:
  rms(total) = 0.87379E+00    rms(broyden)= 0.87373E+00
  rms(prec ) = 0.14292E+01
  weight for this iteration     100.00

 Free energy of the ion-electron system (eV)
  ---------------------------------------------------
  alpha Z        PSCENC =       155.79145076
  Ewald energy   TEWEN  =     -3151.26826959
  -Hartree energ DENC   =     -1155.21784685
  -exchange      EXHF   =         0.00000000
  -V(xc)+E(xc)   XCENC  =       159.70105748
  PAW double counting   =      3462.71711756    -3919.80126840
  entropy T*S    EENTRO =         0.00000000
  eigenvalues    EBANDS =      -911.29810462
  atomic energy  EATOM  =      5321.70543053
  ---------------------------------------------------
  free energy    TOTEN  =       -37.67043314 eV

  energy without entropy =      -37.67043314  energy(sigma->0) =      -37.67043314


--------------------------------------------------------------------------------------------------------




----------------------------------------- Iteration    1(   6)  ---------------------------------------


    POTLOK:  cpu time    0.02: real time    0.02
    SETDIJ:  cpu time    0.03: real time    0.03
     EDDAV:  cpu time    0.23: real time    0.23
       DOS:  cpu time    0.00: real time    0.00
    CHARGE:  cpu time    0.06: real time    0.06
    MIXING:  cpu time    0.00: real time    0.00
    --------------------------------------------
      LOOP:  cpu time    0.34: real time    0.35

 eigenvalue-minimisations  :   768
 total energy-change (2. order) : 0.1294004E+01  (-0.2536671E+00)
 number of electron      55.9999997 magnetization 
 augmentation part       13.3372915 magnetization 

 Broyden mixing:
  rms(total) = 0.64711E+00    rms(broyden)= 0.64710E+00
  rms(prec ) = 0.79043E+00
  weight for this iteration     100.00

 eigenvalues of (default mixing * dielectric matrix)
  average eigenvalue GAMMA=   2.0734
  2.0734

 Free energy of the ion-electron system (eV)
  ---------------------------------------------------
  alpha Z        PSCENC =       155.79145076
  Ewald energy   TEWEN  =     -3151.26826959
  -Hartree energ DENC   =     -1153.71232995
  -exchange      EXHF   =         0.00000000
  -V(xc)+E(xc)   XCENC  =       160.78685802
  PAW double counting   =      3750.52397715    -4204.14506461
  entropy T*S    EENTRO =         0.00000000
  eigenvalues    EBANDS =      -916.05848099
  atomic energy  EATOM  =      5321.70543053
  ---------------------------------------------------
  free energy    TOTEN  =       -36.37642868 eV

  energy without entropy =      -36.37642868  energy(sigma->0) =      -36.37642868


--------------------------------------------------------------------------------------------------------




----------------------------------------- Iteration    1(   7)  ---------------------------------------


    POTLOK:  cpu time    0.02: real time    0.02
    SETDIJ:  cpu time    0.03: real time    0.03
     EDDAV:  cpu time    0.26: real time    0.27
       DOS:  cpu time    0.00: real time    0.00
    CHARGE:  cpu time    0.06: real time    0.06
    MIXING:  cpu time    0.00: real time    0.00
    --------------------------------------------
      LOOP:  cpu time    0.37: real time    0.38

 eigenvalue-minimisations  :   892
 total energy-change (2. order) : 0.1585766E+00  (-0.7709406E-01)
 number of electron      55.9999997 magnetization 
 augmentation part       13.4242244 magnetization 

 Broyden mixing:
  rms(total) = 0.36377E+00    rms(broyden)= 0.36377E+00
  rms(prec ) = 0.38932E+00
  weight for this iteration     100.00

 eigenvalues of (default mixing * dielectric matrix)
  average eigenvalue GAMMA=   2.2481
  1.4473  3.0490

 Free energy of the ion-electron system (eV)
  ---------------------------------------------------
  alpha Z        PSCENC =       155.79145076
  Ewald energy   TEWEN  =     -3151.26826959
  -Hartree energ DENC   =     -1150.55557052
  -exchange      EXHF   =         0.00000000
  -V(xc)+E(xc)   XCENC  =       161.54660340
  PAW double counting   =      4270.74301969    -4723.12803044
  entropy T*S    EENTRO =         0.00000000
  eigenvalues    EBANDS =      -921.05248588
  atomic energy  EATOM  =      5321.70543053
  ---------------------------------------------------
  free energy    TOTEN  =       -36.21785204 eV

  energy without entropy =      -36.21785204  energy(sigma->0) =      -36.21785204


--------------------------------------------------------------------------------------------------------




----------------------------------------- Iteration    1(   8)  ---------------------------------------


    POTLOK:  cpu time    0.01: real time    0.02
    SETDIJ:  cpu time    0.03: real time    0.03
     EDDAV:  cpu time    0.24: real time    0.24
       DOS:  cpu time    0.00: real time    0.00
    CHARGE:  cpu time    0.06: real time    0.06
    MIXING:  cpu time    0.00: real time    0.00
    --------------------------------------------
      LOOP:  cpu time    0.35: real time    0.36

 eigenvalue-minimisations  :   808
 total energy-change (2. order) : 0.6219185E-02  (-0.4905954E-02)
 number of electron      55.9999997 magnetization 
 augmentation part       13.4062086 magnetization 

 Broyden mixing:
  rms(total) = 0.10229E+00    rms(broyden)= 0.10229E+00
  rms(prec ) = 0.10568E+00
  weight for this iteration     100.00

 eigenvalues of (default mixing * dielectric matrix)
  average eigenvalue GAMMA=   1.6017
  2.4784  0.9293  1.3974

 Free energy of the ion-electron system (eV)
  ---------------------------------------------------
  alpha Z        PSCENC =       155.79145076
  Ewald energy   TEWEN  =     -3151.26826959
  -Hartree energ DENC   =     -1146.21464367
  -exchange      EXHF   =         0.00000000
  -V(xc)+E(xc)   XCENC  =       161.74651697
  PAW double counting   =      4892.25469695    -5345.63836226
  entropy T*S    EENTRO =         0.00000000
  eigenvalues    EBANDS =      -924.58845254
  atomic energy  EATOM  =      5321.70543053
  ---------------------------------------------------
  free energy    TOTEN  =       -36.21163286 eV

  energy without entropy =      -36.21163286  energy(sigma->0) =      -36.21163286


--------------------------------------------------------------------------------------------------------




----------------------------------------- Iteration    1(   9)  ---------------------------------------


    POTLOK:  cpu time    0.02: real time    0.02
    SETDIJ:  cpu time    0.03: real time    0.03
     EDDAV:  cpu time    0.27: real time    0.27
       DOS:  cpu time    0.00: real time    0.00
    CHARGE:  cpu time    0.06: real time    0.06
    MIXING:  cpu time    0.00: real time    0.00
    --------------------------------------------
      LOOP:  cpu time    0.38: real time    0.38

 eigenvalue-minimisations  :   884
 total energy-change (2. order) : 0.7467795E-03  (-0.2329008E-03)
 number of electron      55.9999997 magnetization 
 augmentation part       13.4099172 magnetization 

 Broyden mixing:
  rms(total) = 0.25171E-01    rms(broyden)= 0.25171E-01
  rms(prec ) = 0.26283E-01
  weight for this iteration     100.00

 eigenvalues of (default mixing * dielectric matrix)
  average eigenvalue GAMMA=   1.8438
  2.5982  2.3015  1.0907  1.3850

 Free energy of the ion-electron system (eV)
  ---------------------------------------------------
  alpha Z        PSCENC =       155.79145076
  Ewald energy   TEWEN  =     -3151.26826959
  -Hartree energ DENC   =     -1146.74955889
  -exchange      EXHF   =         0.00000000
  -V(xc)+E(xc)   XCENC  =       161.72325744
  PAW double counting   =      4775.49290578    -5228.68374315
  entropy T*S    EENTRO =         0.00000000
  eigenvalues    EBANDS =      -924.22235896
  atomic energy  EATOM  =      5321.70543053
  ---------------------------------------------------
  free energy    TOTEN  =       -36.21088608 eV

  energy without entropy =      -36.21088608  energy(sigma->0) =      -36.21088608


--------------------------------------------------------------------------------------------------------




----------------------------------------- Iteration    1(  10)  ---------------------------------------


    POTLOK:  cpu time    0.01: real time    0.02
    SETDIJ:  cpu time    0.03: real time    0.03
     EDDAV:  cpu time    0.26: real time    0.27
       DOS:  cpu time    0.00: real time    0.00
    CHARGE:  cpu time    0.06: real time    0.06
    MIXING:  cpu time    0.00: real time    0.00
    --------------------------------------------
      LOOP:  cpu time    0.37: real time    0.38

 eigenvalue-minimisations  :   872
 total energy-change (2. order) :-0.3959817E-04  (-0.5002965E-04)
 number of electron      55.9999997 magnetization 
 augmentation part       13.4122897 magnetization 

 Broyden mixing:
  rms(total) = 0.19801E-02    rms(broyden)= 0.19801E-02
  rms(prec ) = 0.35141E-02
  weight for this iteration     100.00

 eigenvalues of (default mixing * dielectric matrix)
  average eigenvalue GAMMA=   1.6910
  2.7153  2.4769  1.3369  1.0666  0.8593

 Free energy of the ion-electron system (eV)
  ---------------------------------------------------
  alpha Z        PSCENC =       155.79145076
  Ewald energy   TEWEN  =     -3151.26826959
  -Hartree energ DENC   =     -1146.49956110
  -exchange      EXHF   =         0.00000000
  -V(xc)+E(xc)   XCENC  =       161.72370332
  PAW double counting   =      4735.57006481    -5188.75722860
  entropy T*S    EENTRO =         0.00000000
  eigenvalues    EBANDS =      -924.47651580
  atomic energy  EATOM  =      5321.70543053
  ---------------------------------------------------
  free energy    TOTEN  =       -36.21092568 eV

  energy without entropy =      -36.21092568  energy(sigma->0) =      -36.21092568


--------------------------------------------------------------------------------------------------------




----------------------------------------- Iteration    1(  11)  ---------------------------------------


    POTLOK:  cpu time    0.02: real time    0.02
    SETDIJ:  cpu time    0.03: real time    0.03
     EDDAV:  cpu time    0.25: real time    0.25
       DOS:  cpu time    0.00: real time    0.00
    CHARGE:  cpu time    0.06: real time    0.06
    MIXING:  cpu time    0.00: real time    0.00
    --------------------------------------------
      LOOP:  cpu time    0.36: real time    0.36

 eigenvalue-minimisations  :   808
 total energy-change (2. order) : 0.8329859E-05  (-0.3853826E-05)
 number of electron      55.9999997 magnetization 
 augmentation part       13.4117461 magnetization 

 Broyden mixing:
  rms(total) = 0.14978E-02    rms(broyden)= 0.14978E-02
  rms(prec ) = 0.15829E-02
  weight for this iteration     100.00

 eigenvalues of (default mixing * dielectric matrix)
  average eigenvalue GAMMA=   1.6763
  2.7222  2.4379  1.4680  1.0035  1.2131  1.2131

 Free energy of the ion-electron system (eV)
  ---------------------------------------------------
  alpha Z        PSCENC =       155.79145076
  Ewald energy   TEWEN  =     -3151.26826959
  -Hartree energ DENC   =     -1146.45691342
  -exchange      EXHF   =         0.00000000
  -V(xc)+E(xc)   XCENC  =       161.72062120
  PAW double counting   =      4733.41518311    -5186.63043747
  entropy T*S    EENTRO =         0.00000000
  eigenvalues    EBANDS =      -924.48798247
  atomic energy  EATOM  =      5321.70543053
  ---------------------------------------------------
  free energy    TOTEN  =       -36.21091735 eV

  energy without entropy =      -36.21091735  energy(sigma->0) =      -36.21091735


--------------------------------------------------------------------------------------------------------




----------------------------------------- Iteration    1(  12)  ---------------------------------------


    POTLOK:  cpu time    0.02: real time    0.02
    SETDIJ:  cpu time    0.03: real time    0.03
     EDDAV:  cpu time    0.26: real time    0.26
       DOS:  cpu time    0.00: real time    0.00
    CHARGE:  cpu time    0.06: real time    0.06
    MIXING:  cpu time    0.00: real time    0.00
    --------------------------------------------
      LOOP:  cpu time    0.37: real time    0.38

 eigenvalue-minimisations  :   856
 total energy-change (2. order) : 0.3167543E-06  (-0.1666665E-06)
 number of electron      55.9999997 magnetization 
 augmentation part       13.4115945 magnetization 

 Broyden mixing:
  rms(total) = 0.10001E-03    rms(broyden)= 0.99985E-04
  rms(prec ) = 0.18543E-03
  weight for this iteration     100.00

 eigenvalues of (default mixing * dielectric matrix)
  average eigenvalue GAMMA=   1.6976
  2.7926  2.5575  2.1963  1.2503  1.1654  0.9605  0.9605

 Free energy of the ion-electron system (eV)
  ---------------------------------------------------
  alpha Z        PSCENC =       155.79145076
  Ewald energy   TEWEN  =     -3151.26826959
  -Hartree energ DENC   =     -1146.46476113
  -exchange      EXHF   =         0.00000000
  -V(xc)+E(xc)   XCENC  =       161.72119657
  PAW double counting   =      4735.06320402    -5188.28580610
  entropy T*S    EENTRO =         0.00000000
  eigenvalues    EBANDS =      -924.47336209
  atomic energy  EATOM  =      5321.70543053
  ---------------------------------------------------
  free energy    TOTEN  =       -36.21091703 eV

  energy without entropy =      -36.21091703  energy(sigma->0) =      -36.21091703


--------------------------------------------------------------------------------------------------------




----------------------------------------- Iteration    1(  13)  ---------------------------------------


    POTLOK:  cpu time    0.01: real time    0.02
    SETDIJ:  cpu time    0.03: real time    0.03
     EDDAV:  cpu time    0.28: real time    0.28
       DOS:  cpu time    0.00: real time    0.00
    CHARGE:  cpu time    0.06: real time    0.06
    MIXING:  cpu time    0.00: real time    0.00
    --------------------------------------------
      LOOP:  cpu time    0.39: real time    0.39

 eigenvalue-minimisations  :   932
 total energy-change (2. order) : 0.4426511E-08  (-0.1058670E-07)
 number of electron      55.9999997 magnetization 
 augmentation part       13.4115594 magnetization 

 Broyden mixing:
  rms(total) = 0.10324E-03    rms(broyden)= 0.10324E-03
  rms(prec ) = 0.10699E-03
  weight for this iteration     100.00

 eigenvalues of (default mixing * dielectric matrix)
  average eigenvalue GAMMA=   1.7624
  3.1176  2.6067  2.5278  1.5307  1.2447  1.2447  0.9852  0.8419

 Free energy of the ion-electron system (eV)
  ---------------------------------------------------
  alpha Z        PSCENC =       155.79145076
  Ewald energy   TEWEN  =     -3151.26826959
  -Hartree energ DENC   =     -1146.46834346
  -exchange      EXHF   =         0.00000000
  -V(xc)+E(xc)   XCENC  =       161.72114031
  PAW double counting   =      4735.15700951    -5188.38159629
  entropy T*S    EENTRO =         0.00000000
  eigenvalues    EBANDS =      -924.46773879
  atomic energy  EATOM  =      5321.70543053
  ---------------------------------------------------
  free energy    TOTEN  =       -36.21091703 eV

  energy without entropy =      -36.21091703  energy(sigma->0) =      -36.21091703


--------------------------------------------------------------------------------------------------------




----------------------------------------- Iteration    1(  14)  ---------------------------------------


    POTLOK:  cpu time    0.01: real time    0.02
    SETDIJ:  cpu time    0.03: real time    0.03
     EDDAV:  cpu time    0.23: real time    0.23
       DOS:  cpu time    0.00: real time    0.00
    CHARGE:  cpu time    0.06: real time    0.06
    MIXING:  cpu time    0.00: real time    0.00
    --------------------------------------------
      LOOP:  cpu time    0.34: real time    0.34

 eigenvalue-minimisations  :   720
 total energy-change (2. order) : 0.6462506E-07  (-0.1657908E-08)
 number of electron      55.9999997 magnetization 
 augmentation part       13.4115497 magnetization 

 Broyden mixing:
  rms(total) = 0.15797E-03    rms(broyden)= 0.15797E-03
  rms(prec ) = 0.16670E-03
  weight for this iteration     100.00

 eigenvalues of (default mixing * dielectric matrix)
  average eigenvalue GAMMA=   1.7185
  2.8872  2.7054  2.5114  1.9090  1.2675  1.2675  0.8919  1.0131  1.0131

 Free energy of the ion-electron system (eV)
  ---------------------------------------------------
  alpha Z        PSCENC =       155.79145076
  Ewald energy   TEWEN  =     -3151.26826959
  -Hartree energ DENC   =     -1146.46913199
  -exchange      EXHF   =         0.00000000
  -V(xc)+E(xc)   XCENC  =       161.72110725
  PAW double counting   =      4735.23660165    -5188.46078490
  entropy T*S    EENTRO =         0.00000000
  eigenvalues    EBANDS =      -924.46732067
  atomic energy  EATOM  =      5321.70543053
  ---------------------------------------------------
  free energy    TOTEN  =       -36.21091696 eV

  energy without entropy =      -36.21091696  energy(sigma->0) =      -36.21091696


--------------------------------------------------------------------------------------------------------




----------------------------------------- Iteration    1(  15)  ---------------------------------------


    POTLOK:  cpu time    0.02: real time    0.02
    SETDIJ:  cpu time    0.03: real time    0.03
     EDDAV:  cpu time    0.23: real time    0.23
       DOS:  cpu time    0.00: real time    0.00
    CHARGE:  cpu time    0.06: real time    0.06
    MIXING:  cpu time    0.00: real time    0.00
    --------------------------------------------
      LOOP:  cpu time    0.34: real time    0.34

 eigenvalue-minimisations  :   728
 total energy-change (2. order) :-0.5470338E-07  (-0.1439679E-08)
 number of electron      55.9999997 magnetization 
 augmentation part       13.4115632 magnetization 

 Broyden mixing:
  rms(total) = 0.25893E-04    rms(broyden)= 0.25893E-04
  rms(prec ) = 0.26121E-04
  weight for this iteration     100.00

 eigenvalues of (default mixing * dielectric matrix)
  average eigenvalue GAMMA=   1.7431
  2.8020  2.8020  2.4692  2.3303  1.6934  1.2292  1.2292  1.0033  0.9361  0.9361

 Free energy of the ion-electron system (eV)
  ---------------------------------------------------
  alpha Z        PSCENC =       155.79145076
  Ewald energy   TEWEN  =     -3151.26826959
  -Hartree energ DENC   =     -1146.46911771
  -exchange      EXHF   =         0.00000000
  -V(xc)+E(xc)   XCENC  =       161.72111744
  PAW double counting   =      4735.06104060    -5188.28473810
  entropy T*S    EENTRO =         0.00000000
  eigenvalues    EBANDS =      -924.46783094
  atomic energy  EATOM  =      5321.70543053
  ---------------------------------------------------
  free energy    TOTEN  =       -36.21091702 eV

  energy without entropy =      -36.21091702  energy(sigma->0) =      -36.21091702


--------------------------------------------------------------------------------------------------------




----------------------------------------- Iteration    1(  16)  ---------------------------------------


    POTLOK:  cpu time    0.02: real time    0.02
    SETDIJ:  cpu time    0.03: real time    0.03
     EDDAV:  cpu time    0.16: real time    0.16
       DOS:  cpu time    0.00: real time    0.00
    --------------------------------------------
      LOOP:  cpu time    0.21: real time    0.22

 eigenvalue-minimisations  :   432
 total energy-change (2. order) :-0.3590685E-08  (-0.3442409E-10)
 number of electron      55.9999997 magnetization 
 augmentation part       13.4115632 magnetization 

 Free energy of the ion-electron system (eV)
  ---------------------------------------------------
  alpha Z        PSCENC =       155.79145076
  Ewald energy   TEWEN  =     -3151.26826959
  -Hartree energ DENC   =     -1146.46919756
  -exchange      EXHF   =         0.00000000
  -V(xc)+E(xc)   XCENC  =       161.72111799
  PAW double counting   =      4735.03148387    -5188.25519615
  entropy T*S    EENTRO =         0.00000000
  eigenvalues    EBANDS =      -924.46773686
  atomic energy  EATOM  =      5321.70543053
  ---------------------------------------------------
  free energy    TOTEN  =       -36.21091702 eV

  energy without entropy =      -36.21091702  energy(sigma->0) =      -36.21091702


--------------------------------------------------------------------------------------------------------




 average (electrostatic) potential at core
  the test charge radii are     0.8294  0.9698
  (the norm of the test charge is              1.0000)
       1 -42.3686       2 -42.3686       3 -42.3686       4 -42.3686       5 -86.1435
       6 -86.1435       7 -86.1435       8 -86.1435
 
 
 
 E-fermi :   3.9004     XC(G=0): -10.1577     alpha+bet :-10.8184


 k-point     1 :       0.0000    0.0000    0.0000
  band No.  band energies     occupation 
      1     -37.4216      2.00000
      2     -37.4216      2.00000
      3     -37.4216      2.00000
      4     -37.4173      2.00000
      5     -37.4173      2.00000
      6     -37.4173      2.00000
      7     -37.4173      2.00000
      8     -37.4173      2.00000
      9     -37.4173      2.00000
     10     -37.4142      2.00000
     11     -37.4142      2.00000
     12     -37.4142      2.00000
     13      -9.1123      2.00000
     14      -7.2930      2.00000
     15      -7.2930      2.00000
     16      -7.2930      2.00000
     17      -0.6592      2.00000
     18      -0.6592      2.00000
     19      -0.6592      2.00000
     20       1.9882      2.00000
     21       1.9882      2.00000
     22       1.9882      2.00000
     23       1.9882      2.00000
     24       1.9882      2.00000
     25       1.9882      2.00000
     26       3.7686      2.00000
     27       3.7686      2.00000
     28       3.7686      2.00000
     29       6.5443      0.00000
     30       6.5443      0.00000
     31       6.5443      0.00000
     32       7.6263      0.00000
     33       7.9059      0.00000
     34       7.9059      0.00000
     35       7.9059      0.00000
     36      11.5974      0.00000

 k-point     2 :       0.2500    0.0000    0.0000
  band No.  band energies     occupation 
      1     -37.4210      2.00000
      2     -37.4210      2.00000
      3     -37.4205      2.00000
      4     -37.4179      2.00000
      5     -37.4179      2.00000
      6     -37.4173      2.00000
      7     -37.4173      2.00000
      8     -37.4169      2.00000
      9     -37.4169      2.00000
     10     -37.4153      2.00000
     11     -37.4146      2.00000
     12     -37.4146      2.00000
     13      -8.8967      2.00000
     14      -7.6304      2.00000
     15      -7.2661      2.00000
     16      -7.2661      2.00000
     17      -0.3985      2.00000
     18      -0.3985      2.00000
     19      -0.1566      2.00000
     20       1.3756      2.00000
     21       1.3756      2.00000
     22       1.5973      2.00000
     23       1.5973      2.00000
     24       2.1880      2.00000
     25       2.1880      2.00000
     26       2.7250      2.00000
     27       3.4196      2.00000
     28       3.4196      2.00000
     29       7.1941      0.00000
     30       7.5965      0.00000
     31       7.5965      0.00000
     32       8.2295      0.00000
     33       8.7869      0.00000
     34       9.0707      0.00000
     35       9.0707      0.00000
     36      10.5940      0.00000

 k-point     3 :       0.5000    0.0000    0.0000
  band No.  band energies     occupation 
      1     -37.4195      2.00000
      2     -37.4195      2.00000
      3     -37.4195      2.00000
      4     -37.4195      2.00000
      5     -37.4182      2.00000
      6     -37.4182      2.00000
      7     -37.4173      2.00000
      8     -37.4173      2.00000
      9     -37.4158      2.00000
     10     -37.4158      2.00000
     11     -37.4158      2.00000
     12     -37.4158      2.00000
     13      -8.3203      2.00000
     14      -8.3203      2.00000
     15      -7.2388      2.00000
     16      -7.2388      2.00000
     17       0.3448      2.00000
     18       0.3448      2.00000
     19       0.3448      2.00000
     20       0.3448      2.00000
     21       1.1063      2.00000
     22       1.1063      2.00000
     23       1.2788      2.00000
     24       1.2788      2.00000
     25       2.7352      2.00000
     26       2.7352      2.00000
     27       2.7352      2.00000
     28       2.7352      2.00000
     29       8.8336      0.00000
     30       8.8336      0.00000
     31       9.1111      0.00000
     32       9.1111      0.00000
     33       9.1749      0.00000
     34       9.1749      0.00000
     35      11.6593      0.00000
     36      11.6594      0.00000

 k-point     4 :       0.2500    0.2500    0.0000
  band No.  band energies     occupation 
      1     -37.4205      2.00000
      2     -37.4205      2.00000
      3     -37.4204      2.00000
      4     -37.4190      2.00000
      5     -37.4175      2.00000
      6     -37.4175      2.00000
      7     -37.4168      2.00000
      8     -37.4167      2.00000
      9     -37.4167      2.00000
     10     -37.4167      2.00000
     11     -37.4151      2.00000
     12     -37.4143      2.00000
     13      -8.6943      2.00000
     14      -7.5510      2.00000
     15      -7.5510      2.00000
     16      -7.2894      2.00000
     17      -0.1812      2.00000
     18      -0.1812      2.00000
     19      -0.1413      2.00000
     20       0.4056      2.00000
     21       1.5973      2.00000
     22       1.5973      2.00000
     23       1.7454      2.00000
     24       2.0793      2.00000
     25       2.0793      2.00000
     26       2.3202      2.00000
     27       3.0016      2.00000
     28       3.6481      2.00000
     29       7.6307      0.00000
     30       8.1479      0.00000
     31       8.1479      0.00000
     32       9.2729      0.00000
     33       9.3467      0.00000
     34       9.3467      0.00000
     35      10.4164      0.00000
     36      10.8601      0.00000

 k-point     5 :       0.5000    0.2500    0.0000
  band No.  band energies     occupation 
      1     -37.4201      2.00000
      2     -37.4201      2.00000
      3     -37.4191      2.00000
      4     -37.4191      2.00000
      5     -37.4189      2.00000
      6     -37.4189      2.00000
      7     -37.4163      2.00000
      8     -37.4163      2.00000
      9     -37.4163      2.00000
     10     -37.4163      2.00000
     11     -37.4152      2.00000
     12     -37.4152      2.00000
     13      -8.1626      2.00000
     14      -8.1626      2.00000
     15      -7.3917      2.00000
     16      -7.3917      2.00000
     17      -0.1329      2.00000
     18      -0.1329      2.00000
     19       0.5612      2.00000
     20       0.5612      2.00000
     21       0.5903      2.00000
     22       0.5903      2.00000
     23       2.2115      2.00000
     24       2.2115      2.00000
     25       2.2217      2.00000
     26       2.2217      2.00000
     27       3.0402      2.00000
     28       3.0402      2.00000
     29       9.0295      0.00000
     30       9.0295      0.00000
     31       9.6440      0.00000
     32       9.6440      0.00000
     33      10.1082      0.00000
     34      10.1082      0.00000
     35      10.8723      0.00000
     36      10.8981      0.00000

 k-point     6 :       0.5000    0.5000    0.0000
  band No.  band energies     occupation 
      1     -37.4200      2.00000
      2     -37.4200      2.00000
      3     -37.4200      2.00000
      4     -37.4200      2.00000
      5     -37.4175      2.00000
      6     -37.4175      2.00000
      7     -37.4175      2.00000
      8     -37.4175      2.00000
      9     -37.4152      2.00000
     10     -37.4152      2.00000
     11     -37.4152      2.00000
     12     -37.4152      2.00000
     13      -7.7758      2.00000
     14      -7.7758      2.00000
     15      -7.7758      2.00000
     16      -7.7758      2.00000
     17      -0.1047      2.00000
     18      -0.1047      2.00000
     19      -0.1047      2.00000
     20      -0.1047      2.00000
     21       1.2822      2.00000
     22       1.2822      2.00000
     23       1.2822      2.00000
     24       1.2822      2.00000
     25       3.0859      2.00000
     26       3.0859      2.00000
     27       3.0859      2.00000
     28       3.0859      2.00000
     29       9.3923      0.00000
     30       9.3923      0.00000
     31       9.3923      0.00000
     32       9.3923      0.00000
     33      11.5343      0.00000
     34      11.5527      0.00000
     35      11.5780      0.00000
     36      11.6092      0.00000

 k-point     7 :       0.2500    0.2500    0.2500
  band No.  band energies     occupation 
      1     -37.4210      2.00000
      2     -37.4210      2.00000
      3     -37.4210      2.00000
      4     -37.4184      2.00000
      5     -37.4174      2.00000
      6     -37.4174      2.00000
      7     -37.4174      2.00000
      8     -37.4163      2.00000
      9     -37.4163      2.00000
     10     -37.4163      2.00000
     11     -37.4147      2.00000
     12     -37.4147      2.00000
     13      -8.5082      2.00000
     14      -7.5146      2.00000
     15      -7.5146      2.00000
     16      -7.5146      2.00000
     17      -0.4830      2.00000
     18      -0.4830      2.00000
     19      -0.4830      2.00000
     20       0.8357      2.00000
     21       1.4196      2.00000
     22       1.4196      2.00000
     23       1.4196      2.00000
     24       2.4854      2.00000
     25       2.4854      2.00000
     26       2.4854      2.00000
     27       3.4181      2.00000
     28       3.4181      2.00000
     29       8.1307      0.00000
     30       8.1307      0.00000
     31       8.1307      0.00000
     32       8.7165      0.00000
     33      10.4793      0.00000
     34      10.4793      0.00000
     35      10.4793      0.00000
     36      11.5425      0.00000

 k-point     8 :       0.5000    0.2500    0.2500
  band No.  band energies     occupation 
      1     -37.4214      2.00000
      2     -37.4214      2.00000
      3     -37.4203      2.00000
      4     -37.4203      2.00000
      5     -37.4174      2.00000
      6     -37.4174      2.00000
      7     -37.4160      2.00000
      8     -37.4160      2.00000
      9     -37.4155      2.00000
     10     -37.4155      2.00000
     11     -37.4155      2.00000
     12     -37.4155      2.00000
     13      -8.0316      2.00000
     14      -8.0316      2.00000
     15      -7.4771      2.00000
     16      -7.4771      2.00000
     17      -0.7621      2.00000
     18      -0.7621      2.00000
     19      -0.1617      2.00000
     20      -0.1617      2.00000
     21       1.4923      2.00000
     22       1.4923      2.00000
     23       2.5376      2.00000
     24       2.5376      2.00000
     25       2.7842      2.00000
     26       2.7842      2.00000
     27       2.9199      2.00000
     28       2.9199      2.00000
     29       9.0018      0.00000
     30       9.0018      0.00000
     31       9.3503      0.00000
     32       9.3503      0.00000
     33       9.8262      0.00000
     34       9.8262      0.00000
     35      10.3815      0.00000
     36      10.3815      0.00000

 k-point     9 :       0.5000    0.5000    0.2500
  band No.  band energies     occupation 
      1     -37.4215      2.00000
      2     -37.4215      2.00000
      3     -37.4215      2.00000
      4     -37.4215      2.00000
      5     -37.4161      2.00000
      6     -37.4161      2.00000
      7     -37.4161      2.00000
      8     -37.4161      2.00000
      9     -37.4153      2.00000
     10     -37.4153      2.00000
     11     -37.4153      2.00000
     12     -37.4153      2.00000
     13      -7.7321      2.00000
     14      -7.7321      2.00000
     15      -7.7321      2.00000
     16      -7.7321      2.00000
     17      -0.8575      2.00000
     18      -0.8575      2.00000
     19      -0.8575      2.00000
     20      -0.8575      2.00000
     21       2.3172      2.00000
     22       2.3172      2.00000
     23       2.3172      2.00000
     24       2.3172      2.00000
     25       3.1069      2.00000
     26       3.1069      2.00000
     27       3.1069      2.00000
     28       3.1069      2.00000
     29       9.0465      0.00000
     30       9.0465      0.00000
     31       9.0465      0.00000
     32       9.0465      0.00000
     33      10.2486      0.00000
     34      10.2486      0.00000
     35      10.2486      0.00000
     36      10.2486      0.00000

 k-point    10 :       0.5000    0.5000    0.5000
  band No.  band energies     occupation 
      1     -37.4224      2.00000
      2     -37.4224      2.00000
      3     -37.4224      2.00000
      4     -37.4224      2.00000
      5     -37.4152      2.00000
      6     -37.4152      2.00000
      7     -37.4152      2.00000
      8     -37.4152      2.00000
      9     -37.4152      2.00000
     10     -37.4152      2.00000
     11     -37.4152      2.00000
     12     -37.4152      2.00000
     13      -7.6869      2.00000
     14      -7.6869      2.00000
     15      -7.6869      2.00000
     16      -7.6869      2.00000
     17      -1.3071      2.00000
     18      -1.3071      2.00000
     19      -1.3071      2.00000
     20      -1.3071      2.00000
     21       3.1284      2.00000
     22       3.1284      2.00000
     23       3.1284      2.00000
     24       3.1284      2.00000
     25       3.1284      2.00000
     26       3.1284      2.00000
     27       3.1284      2.00000
     28       3.1284      2.00000
     29       8.2166      0.00000
     30       8.2166      0.00000
     31       8.2166      0.00000
     32       8.2166      0.00000
     33      10.6343      0.00000
     34      10.6343      0.00000
     35      10.6343      0.00000
     36      10.6343      0.00000


--------------------------------------------------------------------------------------------------------


 soft charge-density along one line, spin component           1
         0         1         2         3         4         5         6         7         8         9
 total charge-density along one line
 
 pseudopotential strength for first ion, spin component:           1
-49.000   0.000   0.000   5.901   0.000   0.000   0.000   0.000
  0.000 -49.000   0.000   0.000   5.901   0.000   0.000   0.000
  0.000   0.000 -49.000   0.000   0.000   5.901   0.000   0.000
  5.901   0.000   0.000   4.658   0.000   0.000   0.000   0.000
  0.000   5.901   0.000   0.000   4.658   0.000   0.000   0.000
  0.000   0.000   5.901   0.000   0.000   4.658   0.000   0.000
  0.000   0.000   0.000   0.000   0.000   0.000   2.963 -10.861
  0.000   0.000   0.000   0.000   0.000   0.000 -10.861  45.203
  0.000   0.000   0.000   0.000   0.000   0.000   0.000   0.000
  0.000   0.000   0.000   0.000   0.000   0.000   0.000   0.000
  0.000   0.000   0.000   0.000   0.000   0.000   0.000   0.000
  0.000   0.000   0.000   0.000   0.000   0.000   0.000   0.000
  0.000   0.000   0.000   0.000   0.000   0.000   0.000   0.000
 total augmentation occupancy for first ion, spin component:           1
  2.002   0.000   0.000   0.000   0.000   0.000   0.000   0.000   0.000   0.000   0.000   0.000   0.000
  0.000   2.002   0.000   0.000   0.000   0.000   0.000   0.000   0.000   0.000   0.000   0.000   0.000
  0.000   0.000   2.002   0.000   0.000   0.000   0.000   0.000   0.000   0.000   0.000   0.000   0.000
  0.000   0.000   0.000   0.060   0.000   0.000   0.000   0.000   0.000   0.000   0.000   0.000   0.000
  0.000   0.000   0.000   0.000   0.060   0.000   0.000   0.000   0.000   0.000   0.000   0.000   0.000
  0.000   0.000   0.000   0.000   0.000   0.060   0.000   0.000   0.000   0.000   0.000   0.000   0.000
  0.000   0.000   0.000   0.000   0.000   0.000   0.812   0.012   0.000   0.000   0.000   0.000   0.000
  0.000   0.000   0.000   0.000   0.000   0.000   0.012   0.000   0.000   0.000   0.000   0.000   0.000
  0.000   0.000   0.000   0.000   0.000   0.000   0.000   0.000   0.006   0.000   0.000   0.000   0.000
  0.000   0.000   0.000   0.000   0.000   0.000   0.000   0.000   0.000   0.006   0.000   0.000   0.000
  0.000   0.000   0.000   0.000   0.000   0.000   0.000   0.000   0.000   0.000   0.030   0.000   0.000
  0.000   0.000   0.000   0.000   0.000   0.000   0.000   0.000   0.000   0.000   0.000   0.006   0.000
  0.000   0.000   0.000   0.000   0.000   0.000   0.000   0.000   0.000   0.000   0.000   0.000   0.030


------------------------ aborting loop because EDIFF is reached ----------------------------------------


    CHARGE:  cpu time    0.06: real time    0.06
    FORLOC:  cpu time    0.00: real time    0.00
    FORNL :  cpu time    0.22: real time    0.22
    STRESS:  cpu time    0.65: real time    0.65
    FORCOR:  cpu time    0.02: real time    0.02
    FORHAR:  cpu time    0.01: real time    0.01
    MIXING:  cpu time    0.00: real time    0.00
    OFIELD:  cpu time    0.00: real time    0.00

  FORCE on cell =-STRESS in cart. coord.  units (eV):
  Direction    XX          YY          ZZ          XY          YZ          ZX
  --------------------------------------------------------------------------------------
  Alpha Z   155.79145   155.79145   155.79145
  Ewald   -1050.42436 -1050.42436 -1050.42436     0.00000     0.00000     0.00000
  Hartree   382.15641   382.15641   382.15641     0.00000     0.00000     0.00000
  E(xc)    -265.32093  -265.32093  -265.32093     0.00000     0.00000     0.00000
  Local      -0.51517    -0.51517    -0.51517     0.00000     0.00000     0.00000
  n-local    37.74966    38.88012    37.03143    -1.35276    -1.24297    -0.51496
  augment    32.55607    32.55607    32.55605     0.00000    -0.00001    -0.00001
  Kinetic   701.26462   712.33765   714.23991    -2.87731    -2.85952    -1.13646
  Fock        0.00000     0.00000     0.00000     0.00000     0.00000     0.00000
  -------------------------------------------------------------------------------------
  Total       1.41126     1.41126     1.41126     0.00000     0.00000     0.00000
  in kB      16.59048    16.59048    16.59048     0.00000     0.00000     0.00000
  external pressure =       16.59 kB  Pullay stress =        0.00 kB


 VOLUME and BASIS-vectors are now :
 -----------------------------------------------------------------------------
  energy-cutoff  :      525.11
  volume of cell :      136.29
      direct lattice vectors                 reciprocal lattice vectors
     5.146200153  0.000000000  0.000000000     0.194318132  0.000000000  0.000000000
     0.000000000  5.146200153  0.000000000     0.000000000  0.194318132  0.000000000
     0.000000000  0.000000000  5.146200153     0.000000000  0.000000000  0.194318132

  length of vectors
     5.146200153  5.146200153  5.146200153     0.194318132  0.194318132  0.194318132


 FORCES acting on ions
    electron-ion (+dipol)            ewald-force                    non-local-force                 convergence-correction
 -----------------------------------------------------------------------------------------------
   -.243E-13 -.153E-13 -.188E-13   0.815E-15 -.580E-14 -.119E-13   -.323E-26 -.436E-25 0.258E-25   -.804E-13 -.756E-13 -.644E-13
   -.246E-13 -.390E-13 -.407E-13   0.100E-14 -.656E-14 -.431E-14   -.242E-25 0.000E+00 0.646E-26   -.918E-13 0.563E-13 0.772E-13
   -.496E-13 -.156E-13 -.562E-12   -.199E-14 -.635E-14 -.436E-14   0.000E+00 0.129E-25 -.808E-26   0.571E-13 -.841E-13 0.570E-13
   -.515E-13 0.154E-11 -.277E-11   -.180E-14 -.711E-14 -.705E-14   -.258E-25 0.452E-25 0.969E-26   0.575E-13 0.637E-13 -.757E-13
   0.694E-13 0.196E-14 -.561E-13   0.108E-14 0.233E-14 0.538E-14   0.000E+00 0.000E+00 -.414E-24   0.354E-13 -.480E-13 -.473E-13
   0.695E-13 0.732E-12 0.665E-12   0.123E-14 0.991E-14 0.885E-14   0.103E-24 0.414E-24 -.414E-24   0.342E-13 0.409E-13 0.418E-13
   0.265E-13 0.152E-13 0.621E-13   -.105E-15 0.305E-14 0.884E-14   0.103E-24 -.517E-24 -.207E-24   -.466E-13 -.473E-13 0.402E-13
   0.264E-13 0.583E-13 0.196E-13   0.424E-16 0.106E-13 0.457E-14   0.116E-24 0.207E-24 -.207E-24   -.473E-13 0.417E-13 -.507E-13
 -----------------------------------------------------------------------------------------------
   0.419E-13 0.227E-11 -.270E-11   0.277E-15 0.887E-16 -.954E-17   0.270E-24 0.118E-24 -.121E-23   -.821E-13 -.525E-13 -.219E-13
 
 
 POSITION                                       TOTAL-FORCE (eV/Angst)
 -----------------------------------------------------------------------------------
      0.00000      0.00000      0.00000         0.000000      0.000000      0.000000
      0.00000      2.57310      2.57310         0.000000      0.000000      0.000000
      2.57310      0.00000      2.57310         0.000000      0.000000      0.000000
      2.57310      2.57310      0.00000         0.000000      0.000000      0.000000
      2.57310      0.00000      0.00000         0.000000      0.000000      0.000000
      2.57310      2.57310      2.57310         0.000000      0.000000      0.000000
      0.00000      0.00000      2.57310         0.000000      0.000000      0.000000
      0.00000      2.57310      0.00000         0.000000      0.000000      0.000000
 -----------------------------------------------------------------------------------
    total drift:                                0.000000      0.000000      0.000000


--------------------------------------------------------------------------------------------------------



  FREE ENERGIE OF THE ION-ELECTRON SYSTEM (eV)
  ---------------------------------------------------
  free  energy   TOTEN  =       -36.21091702 eV

  energy  without entropy=      -36.21091702  energy(sigma->0) =      -36.21091702
 


--------------------------------------------------------------------------------------------------------


    POTLOK:  cpu time    0.05: real time    0.05


--------------------------------------------------------------------------------------------------------




--------------------------------------------------------------------------------------------------------


  
 reached required accuracy - stopping structural energy minimisation
     LOOP+:  cpu time    6.31: real time    6.35
    4ORBIT:  cpu time    0.00: real time    0.00

 total amount of memory used by VASP on root node    38938. kBytes
========================================================================

   base      :      30000. kBytes
   nonl-proj :       1669. kBytes
   fftplans  :       4154. kBytes
   grid      :       1976. kBytes
   one-center:         16. kBytes
   wavefun   :       1123. kBytes
 
  
  
 General timing and accounting informations for this job:
 ========================================================
  
                  Total CPU time used (sec):        7.533
                            User time (sec):        6.494
                          System time (sec):        1.039
                         Elapsed time (sec):        7.806
  
                   Maximum memory used (kb):       74264.
                   Average memory used (kb):           0.
  
                          Minor page faults:       228427
                          Major page faults:            0
                 Voluntary context switches:         1994
