<?xml version="1.0" encoding="ISO-8859-1"?>
<modeling>
 <generator>
  <i name="program" type="string">vasp </i>
  <i name="version" type="string">5.3.5  </i>
  <i name="subversion" type="string">31Mar14 (build Nov 07 2014 11:36:17) complex                          parallel </i>
  <i name="platform" type="string">LinuxIFC </i>
  <i name="date" type="string">2015 10 15 </i>
  <i name="time" type="string">01:05:12 </i>
 </generator>
 <incar>
  <i type="string" name="PREC">accurate</i>
  <i type="int" name="IALGO">    38</i>
  <i type="logical" name="ADDGRID"> T  </i>
  <i type="int" name="NELMIN">     5</i>
  <i type="int" name="IBRION">     2</i>
  <i name="EDIFF">      0.00000001</i>
  <i name="EDIFFG">     -0.00000001</i>
  <i type="int" name="NSW">    20</i>
  <i type="int" name="ISIF">     4</i>
  <i name="ENCUT">    525.10770000</i>
  <i type="logical" name="LREAL"> F  </i>
  <i type="int" name="ISMEAR">     0</i>
  <i name="SIGMA">      0.01000000</i>
  <i type="logical" name="LWAVE"> F  </i>
  <i type="logical" name="LCHARG"> F  </i>
  <i type="string" name="GGA"> PS</i>
 </incar>
 <kpoints>
  <generation param="Gamma">
   <v type="int" name="divisions">       4        4        4 </v>
   <v name="usershift">      0.00000000       0.00000000       0.00000000 </v>
   <v name="genvec1">      0.25000000       0.00000000       0.00000000 </v>
   <v name="genvec2">      0.00000000       0.25000000       0.00000000 </v>
   <v name="genvec3">      0.00000000       0.00000000       0.25000000 </v>
   <v name="shift">      0.00000000       0.00000000       0.00000000 </v>
  </generation>
  <varray name="kpointlist" >
   <v>       0.00000000       0.00000000       0.00000000 </v>
   <v>       0.25000000       0.00000000       0.00000000 </v>
   <v>       0.50000000       0.00000000       0.00000000 </v>
   <v>       0.25000000       0.25000000       0.00000000 </v>
   <v>       0.50000000       0.25000000       0.00000000 </v>
   <v>       0.50000000       0.50000000       0.00000000 </v>
   <v>       0.25000000       0.25000000       0.25000000 </v>
   <v>       0.50000000       0.25000000       0.25000000 </v>
   <v>       0.50000000       0.50000000       0.25000000 </v>
   <v>       0.50000000       0.50000000       0.50000000 </v>
  </varray>
  <varray name="weights" >
   <v>       0.01562500 </v>
   <v>       0.09375000 </v>
   <v>       0.04687500 </v>
   <v>       0.18750000 </v>
   <v>       0.18750000 </v>
   <v>       0.04687500 </v>
   <v>       0.12500000 </v>
   <v>       0.18750000 </v>
   <v>       0.09375000 </v>
   <v>       0.01562500 </v>
  </varray>
 </kpoints>
 <parameters>
  <separator name="general" >
   <i type="string" name="SYSTEM">unknown system</i>
   <i type="logical" name="LCOMPAT"> F  </i>
  </separator>
  <separator name="electronic" >
   <i type="string" name="PREC">accura</i>
   <i name="ENMAX">    525.10770000</i>
   <i name="ENAUG">    758.78000000</i>
   <i name="EDIFF">      0.00000001</i>
   <i type="int" name="IALGO">    38</i>
   <i type="int" name="IWAVPR">    11</i>
   <i type="int" name="NBANDS">    36</i>
   <i name="NELECT">     56.00000000</i>
   <i type="int" name="TURBO">     0</i>
   <i type="int" name="IRESTART">     0</i>
   <i type="int" name="NREBOOT">     0</i>
   <i type="int" name="NMIN">     0</i>
   <i name="EREF">      0.00000000</i>
   <separator name="electronic smearing" >
    <i type="int" name="ISMEAR">     0</i>
    <i name="SIGMA">      0.01000000</i>
    <i name="KSPACING">      0.50000000</i>
    <i type="logical" name="KGAMMA"> T  </i>
   </separator>
   <separator name="electronic projectors" >
    <i type="logical" name="LREAL"> F  </i>
    <v name="ROPT">      0.00000000      0.00000000</v>
    <i type="int" name="LMAXPAW">  -100</i>
    <i type="int" name="LMAXMIX">     2</i>
    <i type="logical" name="NLSPLINE"> F  </i>
   </separator>
   <separator name="electronic startup" >
    <i type="int" name="ISTART">     0</i>
    <i type="int" name="ICHARG">     2</i>
    <i type="int" name="INIWAV">     1</i>
   </separator>
   <separator name="electronic spin" >
    <i type="int" name="ISPIN">     1</i>
    <i type="logical" name="LNONCOLLINEAR"> F  </i>
    <v name="MAGMOM">      1.00000000      1.00000000      1.00000000      1.00000000      1.00000000      1.00000000      1.00000000      1.00000000</v>
    <i name="NUPDOWN">     -1.00000000</i>
    <i type="logical" name="LSORBIT"> F  </i>
    <v name="SAXIS">      0.00000000      0.00000000      1.00000000</v>
    <i type="logical" name="LSPIRAL"> F  </i>
    <v name="QSPIRAL">      0.00000000      0.00000000      0.00000000</v>
    <i type="logical" name="LZEROZ"> F  </i>
   </separator>
   <separator name="electronic exchange-correlation" >
    <i type="logical" name="LASPH"> F  </i>
    <i type="logical" name="LMETAGGA"> F  </i>
   </separator>
   <separator name="electronic convergence" >
    <i type="int" name="NELM">    60</i>
    <i type="int" name="NELMDL">    -5</i>
    <i type="int" name="NELMIN">     5</i>
    <i name="ENINI">    525.10770000</i>
    <separator name="electronic convergence detail" >
     <i type="logical" name="LDIAG"> T  </i>
     <i type="logical" name="LSUBROT"> F  </i>
     <i name="WEIMIN">      0.00100000</i>
     <i name="EBREAK">      0.00000000</i>
     <i name="DEPER">      0.30000000</i>
     <i type="int" name="NRMM">     4</i>
     <i name="TIME">      0.40000000</i>
    </separator>
   </separator>
   <separator name="electronic mixer" >
    <i name="AMIX">      0.40000000</i>
    <i name="BMIX">      1.00000000</i>
    <i name="AMIN">      0.10000000</i>
    <i name="AMIX_MAG">      1.60000000</i>
    <i name="BMIX_MAG">      1.00000000</i>
    <separator name="electronic mixer details" >
     <i type="int" name="IMIX">     4</i>
     <i type="int" name="MAXMIX">   -45</i>
     <i name="WC">    100.00000000</i>
     <i type="int" name="INIMIX">     1</i>
     <i type="int" name="MIXPRE">     1</i>
     <i type="int" name="MREMOVE">     5</i>
    </separator>
   </separator>
   <separator name="electronic dipolcorrection" >
    <i type="logical" name="LDIPOL"> F  </i>
    <i type="logical" name="LMONO"> F  </i>
    <i type="int" name="IDIPOL">     0</i>
    <i name="EPSILON">      1.00000000</i>
    <v name="DIPOL">   -100.00000000   -100.00000000   -100.00000000</v>
    <i name="EFIELD">      0.00000000</i>
   </separator>
  </separator>
  <separator name="grids" >
   <i type="int" name="NGX">    40</i>
   <i type="int" name="NGY">    40</i>
   <i type="int" name="NGZ">    40</i>
   <i type="int" name="NGXF">    80</i>
   <i type="int" name="NGYF">    80</i>
   <i type="int" name="NGZF">    80</i>
   <i type="logical" name="ADDGRID"> T  </i>
  </separator>
  <separator name="ionic" >
   <i type="int" name="NSW">    20</i>
   <i type="int" name="IBRION">     2</i>
   <i type="int" name="ISIF">     4</i>
   <i name="PSTRESS">      0.00000000</i>
   <i name="EDIFFG">     -0.00000001</i>
   <i type="int" name="NFREE">     1</i>
   <i name="POTIM">      0.50000000</i>
   <i name="SMASS">     -3.00000000</i>
   <i name="SCALEE">      1.00000000</i>
  </separator>
  <separator name="ionic md" >
   <i name="TEBEG">      0.00010000</i>
   <i name="TEEND">      0.00010000</i>
   <i type="int" name="NBLOCK">     1</i>
   <i type="int" name="KBLOCK">    20</i>
   <i type="int" name="NPACO">   256</i>
   <i name="APACO">     16.00000000</i>
  </separator>
  <separator name="symmetry" >
   <i type="int" name="ISYM">     2</i>
   <i name="SYMPREC">      0.00001000</i>
  </separator>
  <separator name="dos" >
   <i type="logical" name="LORBIT"> F  </i>
   <v name="RWIGS">     -1.00000000     -1.00000000</v>
   <i type="int" name="NEDOS">   301</i>
   <i name="EMIN">     10.00000000</i>
   <i name="EMAX">    -10.00000000</i>
   <i name="EFERMI">      0.00000000</i>
  </separator>
  <separator name="writing" >
   <i type="int" name="NWRITE">     2</i>
   <i type="logical" name="LWAVE"> F  </i>
   <i type="logical" name="LCHARG"> F  </i>
   <i type="logical" name="LPARD"> F  </i>
   <i type="logical" name="LVTOT"> F  </i>
   <i type="logical" name="LVHAR"> F  </i>
   <i type="logical" name="LELF"> F  </i>
   <i type="logical" name="LOPTICS"> F  </i>
   <v name="STM">      0.00000000      0.00000000      0.00000000      0.00000000      0.00000000      0.00000000      0.00000000</v>
  </separator>
  <separator name="performance" >
   <i type="int" name="NPAR">     4</i>
   <i type="int" name="NSIM">     4</i>
   <i type="int" name="NBLK">    -1</i>
   <i type="logical" name="LPLANE"> T  </i>
   <i type="logical" name="LSCALAPACK"> T  </i>
   <i type="logical" name="LSCAAWARE"> F  </i>
   <i type="logical" name="LSCALU"> F  </i>
   <i type="logical" name="LASYNC"> F  </i>
   <i type="logical" name="LORBITALREAL"> F  </i>
  </separator>
  <separator name="miscellaneous" >
   <i type="int" name="IDIOT">     3</i>
   <i type="logical" name="LMUSIC"> F  </i>
   <v name="POMASS">     24.30500000     32.06600000</v>
   <v name="DARWINR">      0.00000000      0.00000000</v>
   <v name="DARWINV">      1.00000000      1.00000000</v>
   <i type="logical" name="LCORR"> T  </i>
  </separator>
  <i type="logical" name="GGA_COMPAT"> T  </i>
  <i type="logical" name="LBERRY"> F  </i>
  <i type="int" name="ICORELEVEL">     0</i>
  <i type="logical" name="LDAU"> F  </i>
  <i type="int" name="I_CONSTRAINED_M">     0</i>
  <separator name="electronic exchange-correlation" >
   <i type="string" name="GGA">PS</i>
   <i type="int" name="VOSKOWN">     0</i>
   <i type="logical" name="LHFCALC"> F  </i>
   <i type="string" name="PRECFOCK"></i>
   <i type="logical" name="LSYMGRAD"> F  </i>
   <i type="logical" name="LHFONE"> F  </i>
   <i type="logical" name="LRHFCALC"> F  </i>
   <i type="logical" name="LTHOMAS"> F  </i>
   <i type="logical" name="LMODELHF"> F  </i>
   <i name="ENCUT4O">     -1.00000000</i>
   <i type="int" name="EXXOEP">     0</i>
   <i type="int" name="FOURORBIT">     0</i>
   <i name="AEXX">      0.00000000</i>
   <i name="HFALPHA">      0.00000000</i>
   <i name="MCALPHA">      0.00000000</i>
   <i name="ALDAX">      1.00000000</i>
   <i name="AGGAX">      1.00000000</i>
   <i name="ALDAC">      1.00000000</i>
   <i name="AGGAC">      1.00000000</i>
   <i type="int" name="NKREDX">     1</i>
   <i type="int" name="NKREDY">     1</i>
   <i type="int" name="NKREDZ">     1</i>
   <i type="logical" name="SHIFTRED"> F  </i>
   <i type="logical" name="ODDONLY"> F  </i>
   <i type="logical" name="EVENONLY"> F  </i>
   <i type="int" name="LMAXFOCK">     0</i>
   <i type="int" name="NMAXFOCKAE">     0</i>
   <i type="logical" name="LFOCKAEDFT"> F  </i>
   <i name="HFSCREEN">      0.00000000</i>
   <i name="HFSCREENC">      0.00000000</i>
   <i type="int" name="NBANDSGWLOW">     0</i>
  </separator>
  <separator name="vdW DFT" >
   <i type="logical" name="LUSE_VDW"> F  </i>
   <i name="Zab_VDW">     -0.84910000</i>
   <i name="PARAM1">      0.12340000</i>
   <i name="PARAM2">      1.00000000</i>
   <i name="PARAM3">      0.00000000</i>
  </separator>
  <separator name="model GW" >
   <i type="int" name="MODEL_GW">     0</i>
   <i name="MODEL_EPS0">     10.22165652</i>
   <i name="MODEL_ALPHA">      1.00000000</i>
  </separator>
  <separator name="linear response parameters" >
   <i type="logical" name="LEPSILON"> F  </i>
   <i type="logical" name="LRPA"> F  </i>
   <i type="logical" name="LNABLA"> F  </i>
   <i type="logical" name="LVEL"> F  </i>
   <i type="int" name="KINTER">     0</i>
   <i name="CSHIFT">      0.10000000</i>
   <i name="OMEGAMAX">     -1.00000000</i>
   <i name="DEG_THRESHOLD">      0.00200000</i>
  </separator>
  <separator name="orbital magnetization" >
   <i type="logical" name="NUCIND"> F  </i>
   <v name="MAGPOS">      0.00000000      0.00000000      0.00000000</v>
   <i type="logical" name="LNICSALL"> T  </i>
   <i type="logical" name="ORBITALMAG"> F  </i>
   <i type="logical" name="LMAGBLOCH"> F  </i>
   <i type="logical" name="LCHIMAG"> F  </i>
   <i type="logical" name="LGAUGE"> T  </i>
   <i type="int" name="MAGATOM">     0</i>
   <v name="MAGDIPOL">      0.00000000      0.00000000      0.00000000</v>
   <v name="AVECCONST">      0.00000000      0.00000000      0.00000000</v>
  </separator>
  <separator name="response functions" >
   <i type="logical" name="LADDER"> F  </i>
   <i type="logical" name="LFXC"> F  </i>
   <i type="logical" name="LHARTREE"> T  </i>
   <i type="int" name="IBSE">     0</i>
   <i type="logical" name="LTCTE"> F  </i>
   <i type="logical" name="LTETE"> F  </i>
   <i type="logical" name="LTRIPLET"> F  </i>
   <i type="logical" name="LFXCEPS"> F  </i>
   <i type="logical" name="LFXHEG"> F  </i>
   <i type="logical" name="L2ORDER"> F  </i>
   <i type="logical" name="LUSEW"> F  </i>
   <i name="ENCUTGW">     -2.00000000</i>
   <i name="ENCUTGWSOFT">     -2.00000000</i>
   <i name="ENCUTLF">     -1.00000000</i>
   <i type="int" name="LMAXMP2">    -1</i>
   <i name="SCISSOR">      0.00000000</i>
   <i type="int" name="NOMEGA">     0</i>
   <i type="int" name="NOMEGAR">     0</i>
   <i type="int" name="NBANDSGW">    -1</i>
   <i type="int" name="NBANDSO">    -1</i>
   <i type="int" name="NBANDSV">    -1</i>
   <i type="int" name="NELM">     1</i>
   <i type="int" name="DIM">     3</i>
   <i type="int" name="ANTIRES">     0</i>
   <i name="OMEGAMAX">    -30.00000000</i>
   <i name="OMEGAMIN">    -30.00000000</i>
   <i name="OMEGATL">   -200.00000000</i>
   <i type="int" name="OMEGAGRID">     0</i>
   <i name="CSHIFT">     -0.10000000</i>
   <i type="logical" name="SELFENERGY"> F  </i>
   <i type="logical" name="LSPECTRAL"> F  </i>
   <i type="logical" name="ODDONLYGW"> F  </i>
   <i type="logical" name="EVENONLYGW"> F  </i>
   <i type="int" name="NKREDLFX">     1</i>
   <i type="int" name="NKREDLFY">     1</i>
   <i type="int" name="NKREDLFZ">     1</i>
   <i type="int" name="MAXMEM">  1800</i>
   <i type="int" name="TELESCOPE">     0</i>
   <i type="int" name="TAUPAR">     1</i>
  </separator>
  <separator name="External order field" >
   <i name="OFIELD_KAPPA">      0.00000000</i>
   <v name="OFIELD_K">      0.00000000      0.00000000      0.00000000</v>
   <i name="OFIELD_Q6_NEAR">      0.00000000</i>
   <i name="OFIELD_Q6_FAR">      0.00000000</i>
   <i name="OFIELD_A">      0.00000000</i>
  </separator>
 </parameters>
 <atominfo>
  <atoms>       8 </atoms>
  <types>       2 </types>
  <array name="atoms" >
   <dimension dim="1">ion</dimension>
   <field type="string">element</field>
   <field type="int">atomtype</field>
   <set>
    <rc><c>Mg</c><c>   1</c></rc>
    <rc><c>Mg</c><c>   1</c></rc>
    <rc><c>Mg</c><c>   1</c></rc>
    <rc><c>Mg</c><c>   1</c></rc>
    <rc><c>S </c><c>   2</c></rc>
    <rc><c>S </c><c>   2</c></rc>
    <rc><c>S </c><c>   2</c></rc>
    <rc><c>S </c><c>   2</c></rc>
   </set>
  </array>
  <array name="atomtypes" >
   <dimension dim="1">type</dimension>
   <field type="int">atomspertype</field>
   <field type="string">element</field>
   <field>mass</field>
   <field>valence</field>
   <field type="string">pseudopotential</field>
   <set>
    <rc><c>   4</c><c>Mg</c><c>     24.30500000</c><c>      8.00000000</c><c>  PAW_PBE Mg_pv 13Apr2007               </c></rc>
    <rc><c>   4</c><c>S </c><c>     32.06600000</c><c>      6.00000000</c><c>  PAW_PBE S 06Sep2000                   </c></rc>
   </set>
  </array>
 </atominfo>
 <structure name="initialpos" >
  <crystal>
   <varray name="basis" >
    <v>       5.14620015       0.00000000       0.00000000 </v>
    <v>       0.00000000       5.14620015       0.00000000 </v>
    <v>       0.00000000       0.00000000       5.14620015 </v>
   </varray>
   <i name="volume">    136.28875366 </i>
   <varray name="rec_basis" >
    <v>       0.19431813       0.00000000       0.00000000 </v>
    <v>       0.00000000       0.19431813       0.00000000 </v>
    <v>       0.00000000       0.00000000       0.19431813 </v>
   </varray>
  </crystal>
  <varray name="positions" >
   <v>       0.00000000       0.00000000       0.00000000 </v>
   <v>       0.00000000       0.50000000       0.50000000 </v>
   <v>       0.50000000       0.00000000       0.50000000 </v>
   <v>       0.50000000       0.50000000       0.00000000 </v>
   <v>       0.50000000       0.00000000       0.00000000 </v>
   <v>       0.50000000       0.50000000       0.50000000 </v>
   <v>       0.00000000       0.00000000       0.50000000 </v>
   <v>       0.00000000       0.50000000       0.00000000 </v>
  </varray>
 </structure>
 <calculation>
  <scstep>
   <time name="dav">    0.27    0.27</time>
   <time name="total">    0.33    0.34</time>
   <energy>
    <i name="alphaZ">    155.79145076 </i>
    <i name="ewald">  -3151.26826959 </i>
    <i name="hartreedc">  -1155.21784685 </i>
    <i name="XCdc">    159.70105748 </i>
    <i name="pawpsdc">   3462.71711756 </i>
    <i name="pawaedc">  -3919.80126840 </i>
    <i name="eentropy">     -0.00074092 </i>
    <i name="bandstr">   -410.35756319 </i>
    <i name="atom">   5321.70543053 </i>
    <i name="e_fr_energy">    463.26936737 </i>
    <i name="e_wo_entrp">    463.27010829 </i>
    <i name="e_0_energy">    463.26973783 </i>
   </energy>
  </scstep>
  <scstep>
   <time name="dav">    0.26    0.26</time>
   <time name="total">    0.26    0.26</time>
   <energy>
    <i name="e_fr_energy">     -3.99779874 </i>
    <i name="e_wo_entrp">     -3.99779874 </i>
    <i name="e_0_energy">     -3.99779874 </i>
   </energy>
  </scstep>
  <scstep>
   <time name="dav">    0.25    0.25</time>
   <time name="total">    0.25    0.26</time>
   <energy>
    <i name="e_fr_energy">    -36.61021486 </i>
    <i name="e_wo_entrp">    -36.61021486 </i>
    <i name="e_0_energy">    -36.61021486 </i>
   </energy>
  </scstep>
  <scstep>
   <time name="dav">    0.27    0.27</time>
   <time name="total">    0.27    0.27</time>
   <energy>
    <i name="e_fr_energy">    -37.64558727 </i>
    <i name="e_wo_entrp">    -37.64558727 </i>
    <i name="e_0_energy">    -37.64558727 </i>
   </energy>
  </scstep>
  <scstep>
   <time name="dav">    0.25    0.25</time>
   <time name="total">    0.31    0.32</time>
   <energy>
    <i name="e_fr_energy">    -37.67043314 </i>
    <i name="e_wo_entrp">    -37.67043314 </i>
    <i name="e_0_energy">    -37.67043314 </i>
   </energy>
  </scstep>
  <scstep>
   <time name="dav">    0.23    0.23</time>
   <time name="total">    0.34    0.35</time>
   <energy>
    <i name="e_fr_energy">    -36.37642868 </i>
    <i name="e_wo_entrp">    -36.37642868 </i>
    <i name="e_0_energy">    -36.37642868 </i>
   </energy>
  </scstep>
  <scstep>
   <time name="dav">    0.26    0.27</time>
   <time name="total">    0.37    0.38</time>
   <energy>
    <i name="e_fr_energy">    -36.21785204 </i>
    <i name="e_wo_entrp">    -36.21785204 </i>
    <i name="e_0_energy">    -36.21785204 </i>
   </energy>
  </scstep>
  <scstep>
   <time name="dav">    0.24    0.24</time>
   <time name="total">    0.35    0.36</time>
   <energy>
    <i name="e_fr_energy">    -36.21163286 </i>
    <i name="e_wo_entrp">    -36.21163286 </i>
    <i name="e_0_energy">    -36.21163286 </i>
   </energy>
  </scstep>
  <scstep>
   <time name="dav">    0.27    0.27</time>
   <time name="total">    0.38    0.38</time>
   <energy>
    <i name="e_fr_energy">    -36.21088608 </i>
    <i name="e_wo_entrp">    -36.21088608 </i>
    <i name="e_0_energy">    -36.21088608 </i>
   </energy>
  </scstep>
  <scstep>
   <time name="dav">    0.26    0.27</time>
   <time name="total">    0.37    0.38</time>
   <energy>
    <i name="e_fr_energy">    -36.21092568 </i>
    <i name="e_wo_entrp">    -36.21092568 </i>
    <i name="e_0_energy">    -36.21092568 </i>
   </energy>
  </scstep>
  <scstep>
   <time name="dav">    0.25    0.25</time>
   <time name="total">    0.36    0.36</time>
   <energy>
    <i name="e_fr_energy">    -36.21091735 </i>
    <i name="e_wo_entrp">    -36.21091735 </i>
    <i name="e_0_energy">    -36.21091735 </i>
   </energy>
  </scstep>
  <scstep>
   <time name="dav">    0.26    0.26</time>
   <time name="total">    0.37    0.38</time>
   <energy>
    <i name="e_fr_energy">    -36.21091703 </i>
    <i name="e_wo_entrp">    -36.21091703 </i>
    <i name="e_0_energy">    -36.21091703 </i>
   </energy>
  </scstep>
  <scstep>
   <time name="dav">    0.28    0.28</time>
   <time name="total">    0.39    0.39</time>
   <energy>
    <i name="e_fr_energy">    -36.21091703 </i>
    <i name="e_wo_entrp">    -36.21091703 </i>
    <i name="e_0_energy">    -36.21091703 </i>
   </energy>
  </scstep>
  <scstep>
   <time name="dav">    0.23    0.23</time>
   <time name="total">    0.34    0.34</time>
   <energy>
    <i name="e_fr_energy">    -36.21091696 </i>
    <i name="e_wo_entrp">    -36.21091696 </i>
    <i name="e_0_energy">    -36.21091696 </i>
   </energy>
  </scstep>
  <scstep>
   <time name="dav">    0.23    0.23</time>
   <time name="total">    0.34    0.34</time>
   <energy>
    <i name="e_fr_energy">    -36.21091702 </i>
    <i name="e_wo_entrp">    -36.21091702 </i>
    <i name="e_0_energy">    -36.21091702 </i>
   </energy>
  </scstep>
  <scstep>
   <time name="dav">    0.16    0.16</time>
   <time name="total">    0.21    0.22</time>
   <energy>
    <i name="alphaZ">    155.79145076 </i>
    <i name="ewald">  -3151.26826959 </i>
    <i name="hartreedc">  -1146.46919756 </i>
    <i name="XCdc">    161.72111799 </i>
    <i name="pawpsdc">   4735.03148387 </i>
    <i name="pawaedc">  -5188.25519615 </i>
    <i name="eentropy">      0.00000000 </i>
    <i name="bandstr">   -924.46773686 </i>
    <i name="atom">   5321.70543053 </i>
    <i name="e_fr_energy">    -36.21091702 </i>
    <i name="e_wo_entrp">    -36.21091702 </i>
    <i name="e_0_energy">    -36.21091702 </i>
   </energy>
  </scstep>
  <structure>
   <crystal>
    <varray name="basis" >
     <v>       5.14620015       0.00000000       0.00000000 </v>
     <v>       0.00000000       5.14620015       0.00000000 </v>
     <v>       0.00000000       0.00000000       5.14620015 </v>
    </varray>
    <i name="volume">    136.28875366 </i>
    <varray name="rec_basis" >
     <v>       0.19431813       0.00000000       0.00000000 </v>
     <v>       0.00000000       0.19431813       0.00000000 </v>
     <v>       0.00000000       0.00000000       0.19431813 </v>
    </varray>
   </crystal>
   <varray name="positions" >
    <v>       0.00000000       0.00000000       0.00000000 </v>
    <v>       0.00000000       0.50000000       0.50000000 </v>
    <v>       0.50000000       0.00000000       0.50000000 </v>
    <v>       0.50000000       0.50000000       0.00000000 </v>
    <v>       0.50000000       0.00000000       0.00000000 </v>
    <v>       0.50000000       0.50000000       0.50000000 </v>
    <v>       0.00000000       0.00000000       0.50000000 </v>
    <v>       0.00000000       0.50000000       0.00000000 </v>
   </varray>
  </structure>
  <varray name="forces" >
   <v>       0.00000000       0.00000000       0.00000000 </v>
   <v>       0.00000000       0.00000000       0.00000000 </v>
   <v>       0.00000000       0.00000000       0.00000000 </v>
   <v>       0.00000000       0.00000000       0.00000000 </v>
   <v>       0.00000000       0.00000000       0.00000000 </v>
   <v>       0.00000000       0.00000000       0.00000000 </v>
   <v>       0.00000000       0.00000000       0.00000000 </v>
   <v>       0.00000000       0.00000000       0.00000000 </v>
  </varray>
  <varray name="stress" >
   <v>      16.59048005       0.00000000       0.00000000 </v>
   <v>       0.00000000      16.59048005       0.00000000 </v>
   <v>       0.00000000       0.00000000      16.59048005 </v>
  </varray>
  <energy>
   <i name="e_fr_energy">    -36.21091702 </i>
   <i name="e_wo_entrp">    -36.21091702 </i>
   <i name="e_0_energy">      0.00000000 </i>
  </energy>
  <time name="totalsc">    6.31    6.35</time>
  <eigenvalues>
   <array>
    <dimension dim="1">band</dimension>
    <dimension dim="2">kpoint</dimension>
    <dimension dim="3">spin</dimension>
    <field>eigene</field>
    <field>occ</field>
    <set>
     <set comment="spin 1">
      <set comment="kpoint 1">
       <r>  -37.4216    1.0000 </r>
       <r>  -37.4216    1.0000 </r>
       <r>  -37.4216    1.0000 </r>
       <r>  -37.4173    1.0000 </r>
       <r>  -37.4173    1.0000 </r>
       <r>  -37.4173    1.0000 </r>
       <r>  -37.4173    1.0000 </r>
       <r>  -37.4173    1.0000 </r>
       <r>  -37.4173    1.0000 </r>
       <r>  -37.4142    1.0000 </r>
       <r>  -37.4142    1.0000 </r>
       <r>  -37.4142    1.0000 </r>
       <r>   -9.1123    1.0000 </r>
       <r>   -7.2930    1.0000 </r>
       <r>   -7.2930    1.0000 </r>
       <r>   -7.2930    1.0000 </r>
       <r>   -0.6592    1.0000 </r>
       <r>   -0.6592    1.0000 </r>
       <r>   -0.6592    1.0000 </r>
       <r>    1.9882    1.0000 </r>
       <r>    1.9882    1.0000 </r>
       <r>    1.9882    1.0000 </r>
       <r>    1.9882    1.0000 </r>
       <r>    1.9882    1.0000 </r>
       <r>    1.9882    1.0000 </r>
       <r>    3.7686    1.0000 </r>
       <r>    3.7686    1.0000 </r>
       <r>    3.7686    1.0000 </r>
       <r>    6.5443    0.0000 </r>
       <r>    6.5443    0.0000 </r>
       <r>    6.5443    0.0000 </r>
       <r>    7.6263    0.0000 </r>
       <r>    7.9059    0.0000 </r>
       <r>    7.9059    0.0000 </r>
       <r>    7.9059    0.0000 </r>
       <r>   11.5974    0.0000 </r>
      </set>
      <set comment="kpoint 2">
       <r>  -37.4210    1.0000 </r>
       <r>  -37.4210    1.0000 </r>
       <r>  -37.4205    1.0000 </r>
       <r>  -37.4179    1.0000 </r>
       <r>  -37.4179    1.0000 </r>
       <r>  -37.4173    1.0000 </r>
       <r>  -37.4173    1.0000 </r>
       <r>  -37.4169    1.0000 </r>
       <r>  -37.4169    1.0000 </r>
       <r>  -37.4153    1.0000 </r>
       <r>  -37.4146    1.0000 </r>
       <r>  -37.4146    1.0000 </r>
       <r>   -8.8967    1.0000 </r>
       <r>   -7.6304    1.0000 </r>
       <r>   -7.2661    1.0000 </r>
       <r>   -7.2661    1.0000 </r>
       <r>   -0.3985    1.0000 </r>
       <r>   -0.3985    1.0000 </r>
       <r>   -0.1566    1.0000 </r>
       <r>    1.3756    1.0000 </r>
       <r>    1.3756    1.0000 </r>
       <r>    1.5973    1.0000 </r>
       <r>    1.5973    1.0000 </r>
       <r>    2.1880    1.0000 </r>
       <r>    2.1880    1.0000 </r>
       <r>    2.7250    1.0000 </r>
       <r>    3.4196    1.0000 </r>
       <r>    3.4196    1.0000 </r>
       <r>    7.1941    0.0000 </r>
       <r>    7.5965    0.0000 </r>
       <r>    7.5965    0.0000 </r>
       <r>    8.2295    0.0000 </r>
       <r>    8.7869    0.0000 </r>
       <r>    9.0707    0.0000 </r>
       <r>    9.0707    0.0000 </r>
       <r>   10.5940    0.0000 </r>
      </set>
      <set comment="kpoint 3">
       <r>  -37.4195    1.0000 </r>
       <r>  -37.4195    1.0000 </r>
       <r>  -37.4195    1.0000 </r>
       <r>  -37.4195    1.0000 </r>
       <r>  -37.4182    1.0000 </r>
       <r>  -37.4182    1.0000 </r>
       <r>  -37.4173    1.0000 </r>
       <r>  -37.4173    1.0000 </r>
       <r>  -37.4158    1.0000 </r>
       <r>  -37.4158    1.0000 </r>
       <r>  -37.4158    1.0000 </r>
       <r>  -37.4158    1.0000 </r>
       <r>   -8.3203    1.0000 </r>
       <r>   -8.3203    1.0000 </r>
       <r>   -7.2388    1.0000 </r>
       <r>   -7.2388    1.0000 </r>
       <r>    0.3448    1.0000 </r>
       <r>    0.3448    1.0000 </r>
       <r>    0.3448    1.0000 </r>
       <r>    0.3448    1.0000 </r>
       <r>    1.1063    1.0000 </r>
       <r>    1.1063    1.0000 </r>
       <r>    1.2788    1.0000 </r>
       <r>    1.2788    1.0000 </r>
       <r>    2.7352    1.0000 </r>
       <r>    2.7352    1.0000 </r>
       <r>    2.7352    1.0000 </r>
       <r>    2.7352    1.0000 </r>
       <r>    8.8336    0.0000 </r>
       <r>    8.8336    0.0000 </r>
       <r>    9.1111    0.0000 </r>
       <r>    9.1111    0.0000 </r>
       <r>    9.1749    0.0000 </r>
       <r>    9.1749    0.0000 </r>
       <r>   11.6593    0.0000 </r>
       <r>   11.6594    0.0000 </r>
      </set>
      <set comment="kpoint 4">
       <r>  -37.4205    1.0000 </r>
       <r>  -37.4205    1.0000 </r>
       <r>  -37.4204    1.0000 </r>
       <r>  -37.4190    1.0000 </r>
       <r>  -37.4175    1.0000 </r>
       <r>  -37.4175    1.0000 </r>
       <r>  -37.4168    1.0000 </r>
       <r>  -37.4167    1.0000 </r>
       <r>  -37.4167    1.0000 </r>
       <r>  -37.4167    1.0000 </r>
       <r>  -37.4151    1.0000 </r>
       <r>  -37.4143    1.0000 </r>
       <r>   -8.6943    1.0000 </r>
       <r>   -7.5510    1.0000 </r>
       <r>   -7.5510    1.0000 </r>
       <r>   -7.2894    1.0000 </r>
       <r>   -0.1812    1.0000 </r>
       <r>   -0.1812    1.0000 </r>
       <r>   -0.1413    1.0000 </r>
       <r>    0.4056    1.0000 </r>
       <r>    1.5973    1.0000 </r>
       <r>    1.5973    1.0000 </r>
       <r>    1.7454    1.0000 </r>
       <r>    2.0793    1.0000 </r>
       <r>    2.0793    1.0000 </r>
       <r>    2.3202    1.0000 </r>
       <r>    3.0016    1.0000 </r>
       <r>    3.6481    1.0000 </r>
       <r>    7.6307    0.0000 </r>
       <r>    8.1479    0.0000 </r>
       <r>    8.1479    0.0000 </r>
       <r>    9.2729    0.0000 </r>
       <r>    9.3467    0.0000 </r>
       <r>    9.3467    0.0000 </r>
       <r>   10.4164    0.0000 </r>
       <r>   10.8601    0.0000 </r>
      </set>
      <set comment="kpoint 5">
       <r>  -37.4201    1.0000 </r>
       <r>  -37.4201    1.0000 </r>
       <r>  -37.4191    1.0000 </r>
       <r>  -37.4191    1.0000 </r>
       <r>  -37.4189    1.0000 </r>
       <r>  -37.4189    1.0000 </r>
       <r>  -37.4163    1.0000 </r>
       <r>  -37.4163    1.0000 </r>
       <r>  -37.4163    1.0000 </r>
       <r>  -37.4163    1.0000 </r>
       <r>  -37.4152    1.0000 </r>
       <r>  -37.4152    1.0000 </r>
       <r>   -8.1626    1.0000 </r>
       <r>   -8.1626    1.0000 </r>
       <r>   -7.3917    1.0000 </r>
       <r>   -7.3917    1.0000 </r>
       <r>   -0.1329    1.0000 </r>
       <r>   -0.1329    1.0000 </r>
       <r>    0.5612    1.0000 </r>
       <r>    0.5612    1.0000 </r>
       <r>    0.5903    1.0000 </r>
       <r>    0.5903    1.0000 </r>
       <r>    2.2115    1.0000 </r>
       <r>    2.2115    1.0000 </r>
       <r>    2.2217    1.0000 </r>
       <r>    2.2217    1.0000 </r>
       <r>    3.0402    1.0000 </r>
       <r>    3.0402    1.0000 </r>
       <r>    9.0295    0.0000 </r>
       <r>    9.0295    0.0000 </r>
       <r>    9.6440    0.0000 </r>
       <r>    9.6440    0.0000 </r>
       <r>   10.1082    0.0000 </r>
       <r>   10.1082    0.0000 </r>
       <r>   10.8723    0.0000 </r>
       <r>   10.8981    0.0000 </r>
      </set>
      <set comment="kpoint 6">
       <r>  -37.4200    1.0000 </r>
       <r>  -37.4200    1.0000 </r>
       <r>  -37.4200    1.0000 </r>
       <r>  -37.4200    1.0000 </r>
       <r>  -37.4175    1.0000 </r>
       <r>  -37.4175    1.0000 </r>
       <r>  -37.4175    1.0000 </r>
       <r>  -37.4175    1.0000 </r>
       <r>  -37.4152    1.0000 </r>
       <r>  -37.4152    1.0000 </r>
       <r>  -37.4152    1.0000 </r>
       <r>  -37.4152    1.0000 </r>
       <r>   -7.7758    1.0000 </r>
       <r>   -7.7758    1.0000 </r>
       <r>   -7.7758    1.0000 </r>
       <r>   -7.7758    1.0000 </r>
       <r>   -0.1047    1.0000 </r>
       <r>   -0.1047    1.0000 </r>
       <r>   -0.1047    1.0000 </r>
       <r>   -0.1047    1.0000 </r>
       <r>    1.2822    1.0000 </r>
       <r>    1.2822    1.0000 </r>
       <r>    1.2822    1.0000 </r>
       <r>    1.2822    1.0000 </r>
       <r>    3.0859    1.0000 </r>
       <r>    3.0859    1.0000 </r>
       <r>    3.0859    1.0000 </r>
       <r>    3.0859    1.0000 </r>
       <r>    9.3923    0.0000 </r>
       <r>    9.3923    0.0000 </r>
       <r>    9.3923    0.0000 </r>
       <r>    9.3923    0.0000 </r>
       <r>   11.5343    0.0000 </r>
       <r>   11.5527    0.0000 </r>
       <r>   11.5780    0.0000 </r>
       <r>   11.6092    0.0000 </r>
      </set>
      <set comment="kpoint 7">
       <r>  -37.4210    1.0000 </r>
       <r>  -37.4210    1.0000 </r>
       <r>  -37.4210    1.0000 </r>
       <r>  -37.4184    1.0000 </r>
       <r>  -37.4174    1.0000 </r>
       <r>  -37.4174    1.0000 </r>
       <r>  -37.4174    1.0000 </r>
       <r>  -37.4163    1.0000 </r>
       <r>  -37.4163    1.0000 </r>
       <r>  -37.4163    1.0000 </r>
       <r>  -37.4147    1.0000 </r>
       <r>  -37.4147    1.0000 </r>
       <r>   -8.5082    1.0000 </r>
       <r>   -7.5146    1.0000 </r>
       <r>   -7.5146    1.0000 </r>
       <r>   -7.5146    1.0000 </r>
       <r>   -0.4830    1.0000 </r>
       <r>   -0.4830    1.0000 </r>
       <r>   -0.4830    1.0000 </r>
       <r>    0.8357    1.0000 </r>
       <r>    1.4196    1.0000 </r>
       <r>    1.4196    1.0000 </r>
       <r>    1.4196    1.0000 </r>
       <r>    2.4854    1.0000 </r>
       <r>    2.4854    1.0000 </r>
       <r>    2.4854    1.0000 </r>
       <r>    3.4181    1.0000 </r>
       <r>    3.4181    1.0000 </r>
       <r>    8.1307    0.0000 </r>
       <r>    8.1307    0.0000 </r>
       <r>    8.1307    0.0000 </r>
       <r>    8.7165    0.0000 </r>
       <r>   10.4793    0.0000 </r>
       <r>   10.4793    0.0000 </r>
       <r>   10.4793    0.0000 </r>
       <r>   11.5425    0.0000 </r>
      </set>
      <set comment="kpoint 8">
       <r>  -37.4214    1.0000 </r>
       <r>  -37.4214    1.0000 </r>
       <r>  -37.4203    1.0000 </r>
       <r>  -37.4203    1.0000 </r>
       <r>  -37.4174    1.0000 </r>
       <r>  -37.4174    1.0000 </r>
       <r>  -37.4160    1.0000 </r>
       <r>  -37.4160    1.0000 </r>
       <r>  -37.4155    1.0000 </r>
       <r>  -37.4155    1.0000 </r>
       <r>  -37.4155    1.0000 </r>
       <r>  -37.4155    1.0000 </r>
       <r>   -8.0316    1.0000 </r>
       <r>   -8.0316    1.0000 </r>
       <r>   -7.4771    1.0000 </r>
       <r>   -7.4771    1.0000 </r>
       <r>   -0.7621    1.0000 </r>
       <r>   -0.7621    1.0000 </r>
       <r>   -0.1617    1.0000 </r>
       <r>   -0.1617    1.0000 </r>
       <r>    1.4923    1.0000 </r>
       <r>    1.4923    1.0000 </r>
       <r>    2.5376    1.0000 </r>
       <r>    2.5376    1.0000 </r>
       <r>    2.7842    1.0000 </r>
       <r>    2.7842    1.0000 </r>
       <r>    2.9199    1.0000 </r>
       <r>    2.9199    1.0000 </r>
       <r>    9.0018    0.0000 </r>
       <r>    9.0018    0.0000 </r>
       <r>    9.3503    0.0000 </r>
       <r>    9.3503    0.0000 </r>
       <r>    9.8262    0.0000 </r>
       <r>    9.8262    0.0000 </r>
       <r>   10.3815    0.0000 </r>
       <r>   10.3815    0.0000 </r>
      </set>
      <set comment="kpoint 9">
       <r>  -37.4215    1.0000 </r>
       <r>  -37.4215    1.0000 </r>
       <r>  -37.4215    1.0000 </r>
       <r>  -37.4215    1.0000 </r>
       <r>  -37.4161    1.0000 </r>
       <r>  -37.4161    1.0000 </r>
       <r>  -37.4161    1.0000 </r>
       <r>  -37.4161    1.0000 </r>
       <r>  -37.4153    1.0000 </r>
       <r>  -37.4153    1.0000 </r>
       <r>  -37.4153    1.0000 </r>
       <r>  -37.4153    1.0000 </r>
       <r>   -7.7321    1.0000 </r>
       <r>   -7.7321    1.0000 </r>
       <r>   -7.7321    1.0000 </r>
       <r>   -7.7321    1.0000 </r>
       <r>   -0.8575    1.0000 </r>
       <r>   -0.8575    1.0000 </r>
       <r>   -0.8575    1.0000 </r>
       <r>   -0.8575    1.0000 </r>
       <r>    2.3172    1.0000 </r>
       <r>    2.3172    1.0000 </r>
       <r>    2.3172    1.0000 </r>
       <r>    2.3172    1.0000 </r>
       <r>    3.1069    1.0000 </r>
       <r>    3.1069    1.0000 </r>
       <r>    3.1069    1.0000 </r>
       <r>    3.1069    1.0000 </r>
       <r>    9.0465    0.0000 </r>
       <r>    9.0465    0.0000 </r>
       <r>    9.0465    0.0000 </r>
       <r>    9.0465    0.0000 </r>
       <r>   10.2486    0.0000 </r>
       <r>   10.2486    0.0000 </r>
       <r>   10.2486    0.0000 </r>
       <r>   10.2486    0.0000 </r>
      </set>
      <set comment="kpoint 10">
       <r>  -37.4224    1.0000 </r>
       <r>  -37.4224    1.0000 </r>
       <r>  -37.4224    1.0000 </r>
       <r>  -37.4224    1.0000 </r>
       <r>  -37.4152    1.0000 </r>
       <r>  -37.4152    1.0000 </r>
       <r>  -37.4152    1.0000 </r>
       <r>  -37.4152    1.0000 </r>
       <r>  -37.4152    1.0000 </r>
       <r>  -37.4152    1.0000 </r>
       <r>  -37.4152    1.0000 </r>
       <r>  -37.4152    1.0000 </r>
       <r>   -7.6869    1.0000 </r>
       <r>   -7.6869    1.0000 </r>
       <r>   -7.6869    1.0000 </r>
       <r>   -7.6869    1.0000 </r>
       <r>   -1.3071    1.0000 </r>
       <r>   -1.3071    1.0000 </r>
       <r>   -1.3071    1.0000 </r>
       <r>   -1.3071    1.0000 </r>
       <r>    3.1284    1.0000 </r>
       <r>    3.1284    1.0000 </r>
       <r>    3.1284    1.0000 </r>
       <r>    3.1284    1.0000 </r>
       <r>    3.1284    1.0000 </r>
       <r>    3.1284    1.0000 </r>
       <r>    3.1284    1.0000 </r>
       <r>    3.1284    1.0000 </r>
       <r>    8.2166    0.0000 </r>
       <r>    8.2166    0.0000 </r>
       <r>    8.2166    0.0000 </r>
       <r>    8.2166    0.0000 </r>
       <r>   10.6343    0.0000 </r>
       <r>   10.6343    0.0000 </r>
       <r>   10.6343    0.0000 </r>
       <r>   10.6343    0.0000 </r>
      </set>
     </set>
    </set>
   </array>
  </eigenvalues>
  <separator name="orbital magnetization" >
   <v name="MAGDIPOLOUT">      0.00000000      0.00000000      0.00000000</v>
  </separator>
  <dos>
   <i name="efermi">      3.90035177 </i>
   <total>
    <array>
     <dimension dim="1">gridpoints</dimension>
     <dimension dim="2">spin</dimension>
     <field>energy</field>
     <field>total</field>
     <field>integrated</field>
     <set>
      <set comment="spin 1">
       <r>   -39.8765     0.0000     0.0000 </r>
       <r>   -39.6965     0.0000     0.0000 </r>
       <r>   -39.5166     0.0000     0.0000 </r>
       <r>   -39.3366     0.0000     0.0000 </r>
       <r>   -39.1566     0.0000     0.0000 </r>
       <r>   -38.9767     0.0000     0.0000 </r>
       <r>   -38.7967     0.0000     0.0000 </r>
       <r>   -38.6167     0.0000     0.0000 </r>
       <r>   -38.4368     0.0000     0.0000 </r>
       <r>   -38.2568     0.0000     0.0000 </r>
       <r>   -38.0768     0.0000     0.0000 </r>
       <r>   -37.8969     0.0000     0.0000 </r>
       <r>   -37.7169     0.0000     0.0000 </r>
       <r>   -37.5369     0.0000     0.0000 </r>
       <r>   -37.3570   133.3582    24.0000 </r>
       <r>   -37.1770     0.0000    24.0000 </r>
       <r>   -36.9970     0.0000    24.0000 </r>
       <r>   -36.8171     0.0000    24.0000 </r>
       <r>   -36.6371     0.0000    24.0000 </r>
       <r>   -36.4571     0.0000    24.0000 </r>
       <r>   -36.2772     0.0000    24.0000 </r>
       <r>   -36.0972     0.0000    24.0000 </r>
       <r>   -35.9172     0.0000    24.0000 </r>
       <r>   -35.7373     0.0000    24.0000 </r>
       <r>   -35.5573     0.0000    24.0000 </r>
       <r>   -35.3773     0.0000    24.0000 </r>
       <r>   -35.1974     0.0000    24.0000 </r>
       <r>   -35.0174     0.0000    24.0000 </r>
       <r>   -34.8374     0.0000    24.0000 </r>
       <r>   -34.6575     0.0000    24.0000 </r>
       <r>   -34.4775     0.0000    24.0000 </r>
       <r>   -34.2975     0.0000    24.0000 </r>
       <r>   -34.1176     0.0000    24.0000 </r>
       <r>   -33.9376     0.0000    24.0000 </r>
       <r>   -33.7576     0.0000    24.0000 </r>
       <r>   -33.5777     0.0000    24.0000 </r>
       <r>   -33.3977     0.0000    24.0000 </r>
       <r>   -33.2177     0.0000    24.0000 </r>
       <r>   -33.0378     0.0000    24.0000 </r>
       <r>   -32.8578     0.0000    24.0000 </r>
       <r>   -32.6778     0.0000    24.0000 </r>
       <r>   -32.4979     0.0000    24.0000 </r>
       <r>   -32.3179     0.0000    24.0000 </r>
       <r>   -32.1379     0.0000    24.0000 </r>
       <r>   -31.9580     0.0000    24.0000 </r>
       <r>   -31.7780     0.0000    24.0000 </r>
       <r>   -31.5980     0.0000    24.0000 </r>
       <r>   -31.4181     0.0000    24.0000 </r>
       <r>   -31.2381     0.0000    24.0000 </r>
       <r>   -31.0581     0.0000    24.0000 </r>
       <r>   -30.8782     0.0000    24.0000 </r>
       <r>   -30.6982     0.0000    24.0000 </r>
       <r>   -30.5182     0.0000    24.0000 </r>
       <r>   -30.3383     0.0000    24.0000 </r>
       <r>   -30.1583     0.0000    24.0000 </r>
       <r>   -29.9783     0.0000    24.0000 </r>
       <r>   -29.7984     0.0000    24.0000 </r>
       <r>   -29.6184     0.0000    24.0000 </r>
       <r>   -29.4384     0.0000    24.0000 </r>
       <r>   -29.2585     0.0000    24.0000 </r>
       <r>   -29.0785     0.0000    24.0000 </r>
       <r>   -28.8985     0.0000    24.0000 </r>
       <r>   -28.7186     0.0000    24.0000 </r>
       <r>   -28.5386     0.0000    24.0000 </r>
       <r>   -28.3586     0.0000    24.0000 </r>
       <r>   -28.1787     0.0000    24.0000 </r>
       <r>   -27.9987     0.0000    24.0000 </r>
       <r>   -27.8187     0.0000    24.0000 </r>
       <r>   -27.6388     0.0000    24.0000 </r>
       <r>   -27.4588     0.0000    24.0000 </r>
       <r>   -27.2788     0.0000    24.0000 </r>
       <r>   -27.0989     0.0000    24.0000 </r>
       <r>   -26.9189     0.0000    24.0000 </r>
       <r>   -26.7389     0.0000    24.0000 </r>
       <r>   -26.5590     0.0000    24.0000 </r>
       <r>   -26.3790     0.0000    24.0000 </r>
       <r>   -26.1990     0.0000    24.0000 </r>
       <r>   -26.0191     0.0000    24.0000 </r>
       <r>   -25.8391     0.0000    24.0000 </r>
       <r>   -25.6591     0.0000    24.0000 </r>
       <r>   -25.4792     0.0000    24.0000 </r>
       <r>   -25.2992     0.0000    24.0000 </r>
       <r>   -25.1192     0.0000    24.0000 </r>
       <r>   -24.9393     0.0000    24.0000 </r>
       <r>   -24.7593     0.0000    24.0000 </r>
       <r>   -24.5793     0.0000    24.0000 </r>
       <r>   -24.3994     0.0000    24.0000 </r>
       <r>   -24.2194     0.0000    24.0000 </r>
       <r>   -24.0394     0.0000    24.0000 </r>
       <r>   -23.8595     0.0000    24.0000 </r>
       <r>   -23.6795     0.0000    24.0000 </r>
       <r>   -23.4995     0.0000    24.0000 </r>
       <r>   -23.3196     0.0000    24.0000 </r>
       <r>   -23.1396     0.0000    24.0000 </r>
       <r>   -22.9596     0.0000    24.0000 </r>
       <r>   -22.7797     0.0000    24.0000 </r>
       <r>   -22.5997     0.0000    24.0000 </r>
       <r>   -22.4197     0.0000    24.0000 </r>
       <r>   -22.2398     0.0000    24.0000 </r>
       <r>   -22.0598     0.0000    24.0000 </r>
       <r>   -21.8798     0.0000    24.0000 </r>
       <r>   -21.6999     0.0000    24.0000 </r>
       <r>   -21.5199     0.0000    24.0000 </r>
       <r>   -21.3399     0.0000    24.0000 </r>
       <r>   -21.1600     0.0000    24.0000 </r>
       <r>   -20.9800     0.0000    24.0000 </r>
       <r>   -20.8000     0.0000    24.0000 </r>
       <r>   -20.6201     0.0000    24.0000 </r>
       <r>   -20.4401     0.0000    24.0000 </r>
       <r>   -20.2601     0.0000    24.0000 </r>
       <r>   -20.0802     0.0000    24.0000 </r>
       <r>   -19.9002     0.0000    24.0000 </r>
       <r>   -19.7203     0.0000    24.0000 </r>
       <r>   -19.5403     0.0000    24.0000 </r>
       <r>   -19.3603     0.0000    24.0000 </r>
       <r>   -19.1804     0.0000    24.0000 </r>
       <r>   -19.0004     0.0000    24.0000 </r>
       <r>   -18.8204     0.0000    24.0000 </r>
       <r>   -18.6405     0.0000    24.0000 </r>
       <r>   -18.4605     0.0000    24.0000 </r>
       <r>   -18.2805     0.0000    24.0000 </r>
       <r>   -18.1006     0.0000    24.0000 </r>
       <r>   -17.9206     0.0000    24.0000 </r>
       <r>   -17.7406     0.0000    24.0000 </r>
       <r>   -17.5607     0.0000    24.0000 </r>
       <r>   -17.3807     0.0000    24.0000 </r>
       <r>   -17.2007     0.0000    24.0000 </r>
       <r>   -17.0208     0.0000    24.0000 </r>
       <r>   -16.8408     0.0000    24.0000 </r>
       <r>   -16.6608     0.0000    24.0000 </r>
       <r>   -16.4809     0.0000    24.0000 </r>
       <r>   -16.3009     0.0000    24.0000 </r>
       <r>   -16.1209     0.0000    24.0000 </r>
       <r>   -15.9410     0.0000    24.0000 </r>
       <r>   -15.7610     0.0000    24.0000 </r>
       <r>   -15.5810     0.0000    24.0000 </r>
       <r>   -15.4011     0.0000    24.0000 </r>
       <r>   -15.2211     0.0000    24.0000 </r>
       <r>   -15.0411     0.0000    24.0000 </r>
       <r>   -14.8612     0.0000    24.0000 </r>
       <r>   -14.6812     0.0000    24.0000 </r>
       <r>   -14.5012     0.0000    24.0000 </r>
       <r>   -14.3213     0.0000    24.0000 </r>
       <r>   -14.1413     0.0000    24.0000 </r>
       <r>   -13.9613     0.0000    24.0000 </r>
       <r>   -13.7814     0.0000    24.0000 </r>
       <r>   -13.6014     0.0000    24.0000 </r>
       <r>   -13.4214     0.0000    24.0000 </r>
       <r>   -13.2415     0.0000    24.0000 </r>
       <r>   -13.0615     0.0000    24.0000 </r>
       <r>   -12.8815     0.0000    24.0000 </r>
       <r>   -12.7016     0.0000    24.0000 </r>
       <r>   -12.5216     0.0000    24.0000 </r>
       <r>   -12.3416     0.0000    24.0000 </r>
       <r>   -12.1617     0.0000    24.0000 </r>
       <r>   -11.9817     0.0000    24.0000 </r>
       <r>   -11.8017     0.0000    24.0000 </r>
       <r>   -11.6218     0.0000    24.0000 </r>
       <r>   -11.4418     0.0000    24.0000 </r>
       <r>   -11.2618     0.0000    24.0000 </r>
       <r>   -11.0819     0.0000    24.0000 </r>
       <r>   -10.9019     0.0000    24.0000 </r>
       <r>   -10.7219     0.0000    24.0000 </r>
       <r>   -10.5420     0.0000    24.0000 </r>
       <r>   -10.3620     0.0000    24.0000 </r>
       <r>   -10.1820     0.0000    24.0000 </r>
       <r>   -10.0021     0.0000    24.0000 </r>
       <r>    -9.8221     0.0000    24.0000 </r>
       <r>    -9.6421     0.0000    24.0000 </r>
       <r>    -9.4622     0.0000    24.0000 </r>
       <r>    -9.2822     0.0000    24.0000 </r>
       <r>    -9.1022     0.1602    24.0288 </r>
       <r>    -8.9223     0.0002    24.0313 </r>
       <r>    -8.7423     0.0000    24.2188 </r>
       <r>    -8.5623     0.0000    24.5938 </r>
       <r>    -8.3824     0.0000    24.8438 </r>
       <r>    -8.2024     0.0000    25.0313 </r>
       <r>    -8.0224     3.7654    26.4589 </r>
       <r>    -7.8425     0.0000    26.5312 </r>
       <r>    -7.6625     4.8618    27.7812 </r>
       <r>    -7.4825     9.2545    29.6343 </r>
       <r>    -7.3026     0.1100    30.9885 </r>
       <r>    -7.1226     0.0000    32.0000 </r>
       <r>    -6.9426     0.0000    32.0000 </r>
       <r>    -6.7627     0.0000    32.0000 </r>
       <r>    -6.5827     0.0000    32.0000 </r>
       <r>    -6.4027     0.0000    32.0000 </r>
       <r>    -6.2228     0.0000    32.0000 </r>
       <r>    -6.0428     0.0000    32.0000 </r>
       <r>    -5.8628     0.0000    32.0000 </r>
       <r>    -5.6829     0.0000    32.0000 </r>
       <r>    -5.5029     0.0000    32.0000 </r>
       <r>    -5.3229     0.0000    32.0000 </r>
       <r>    -5.1430     0.0000    32.0000 </r>
       <r>    -4.9630     0.0000    32.0000 </r>
       <r>    -4.7830     0.0000    32.0000 </r>
       <r>    -4.6031     0.0000    32.0000 </r>
       <r>    -4.4231     0.0000    32.0000 </r>
       <r>    -4.2431     0.0000    32.0000 </r>
       <r>    -4.0632     0.0000    32.0000 </r>
       <r>    -3.8832     0.0000    32.0000 </r>
       <r>    -3.7032     0.0000    32.0000 </r>
       <r>    -3.5233     0.0000    32.0000 </r>
       <r>    -3.3433     0.0000    32.0000 </r>
       <r>    -3.1633     0.0000    32.0000 </r>
       <r>    -2.9834     0.0000    32.0000 </r>
       <r>    -2.8034     0.0000    32.0000 </r>
       <r>    -2.6234     0.0000    32.0000 </r>
       <r>    -2.4435     0.0000    32.0000 </r>
       <r>    -2.2635     0.0000    32.0000 </r>
       <r>    -2.0835     0.0000    32.0000 </r>
       <r>    -1.9036     0.0000    32.0000 </r>
       <r>    -1.7236     0.0000    32.0000 </r>
       <r>    -1.5436     0.0000    32.0000 </r>
       <r>    -1.3637     0.0000    32.0000 </r>
       <r>    -1.1837     0.0000    32.1250 </r>
       <r>    -1.0037     0.0000    32.1250 </r>
       <r>    -0.8238     4.1674    32.8750 </r>
       <r>    -0.6438     0.5133    33.7174 </r>
       <r>    -0.4638     4.1536    34.4663 </r>
       <r>    -0.2839     0.0000    34.8438 </r>
       <r>    -0.1039    16.7669    37.8612 </r>
       <r>     0.0761     0.0000    38.0312 </r>
       <r>     0.2560     0.0000    38.0312 </r>
       <r>     0.4360     2.0837    38.7812 </r>
       <r>     0.6160     8.3343    40.2811 </r>
       <r>     0.7959     0.0000    40.2813 </r>
       <r>     0.9759     0.0000    40.5312 </r>
       <r>     1.1559     1.0419    40.7187 </r>
       <r>     1.3358     3.1256    41.2813 </r>
       <r>     1.5158     4.1656    43.1559 </r>
       <r>     1.6958     0.0000    44.2813 </r>
       <r>     1.8757     0.0000    44.6562 </r>
       <r>     2.0557     1.0436    44.8441 </r>
       <r>     2.2357    10.3174    47.4505 </r>
       <r>     2.4156     0.0000    48.5938 </r>
       <r>     2.5956     4.1674    50.0938 </r>
       <r>     2.7756     3.5899    50.7398 </r>
       <r>     2.9555     4.1674    52.1562 </r>
       <r>     3.1355     7.4210    54.6168 </r>
       <r>     3.3155     0.0000    54.6562 </r>
       <r>     3.4954     4.8620    55.5312 </r>
       <r>     3.6754     2.0836    55.9062 </r>
       <r>     3.8554     0.0000    56.0000 </r>
       <r>     4.0353     0.0000    56.0000 </r>
       <r>     4.2153     0.0000    56.0000 </r>
       <r>     4.3953     0.0000    56.0000 </r>
       <r>     4.5752     0.0000    56.0000 </r>
       <r>     4.7552     0.0000    56.0000 </r>
       <r>     4.9352     0.0000    56.0000 </r>
       <r>     5.1151     0.0000    56.0000 </r>
       <r>     5.2951     0.0000    56.0000 </r>
       <r>     5.4751     0.0000    56.0000 </r>
       <r>     5.6550     0.0000    56.0000 </r>
       <r>     5.8350     0.0000    56.0000 </r>
       <r>     6.0150     0.0000    56.0000 </r>
       <r>     6.1949     0.0000    56.0000 </r>
       <r>     6.3749     0.0000    56.0000 </r>
       <r>     6.5549     0.4861    56.0875 </r>
       <r>     6.7348     0.0000    56.0938 </r>
       <r>     6.9148     0.0000    56.0938 </r>
       <r>     7.0948     0.0000    56.0938 </r>
       <r>     7.2747     0.0000    56.2812 </r>
       <r>     7.4547     0.0000    56.2812 </r>
       <r>     7.6347     3.7211    56.9509 </r>
       <r>     7.8146     0.0000    57.0625 </r>
       <r>     7.9946     0.0000    57.1562 </r>
       <r>     8.1746     8.3345    58.6562 </r>
       <r>     8.3545     0.0000    58.9688 </r>
       <r>     8.5345     0.0000    58.9688 </r>
       <r>     8.7145     0.5399    59.0659 </r>
       <r>     8.8944     1.0419    59.5938 </r>
       <r>     9.0744    13.9568    62.1055 </r>
       <r>     9.2544     1.0510    62.5954 </r>
       <r>     9.4343     2.0837    64.8437 </r>
       <r>     9.6143     0.0001    64.8438 </r>
       <r>     9.7943     0.0000    65.5938 </r>
       <r>     9.9742     0.0000    66.3438 </r>
       <r>    10.1542     4.1674    67.0937 </r>
       <r>    10.3342     0.0000    67.8438 </r>
       <r>    10.5141     4.1674    69.7187 </r>
       <r>    10.6941     0.6946    70.0312 </r>
       <r>    10.8741     3.2816    70.6218 </r>
       <r>    11.0540     0.0000    71.1562 </r>
       <r>    11.2340     0.0000    71.1562 </r>
       <r>    11.4140     0.0000    71.1562 </r>
       <r>    11.5939     3.0078    71.6976 </r>
       <r>    11.7739     0.0000    72.0000 </r>
       <r>    11.9539     0.0000    72.0000 </r>
       <r>    12.1338     0.0000    72.0000 </r>
       <r>    12.3138     0.0000    72.0000 </r>
       <r>    12.4938     0.0000    72.0000 </r>
       <r>    12.6737     0.0000    72.0000 </r>
       <r>    12.8537     0.0000    72.0000 </r>
       <r>    13.0337     0.0000    72.0000 </r>
       <r>    13.2136     0.0000    72.0000 </r>
       <r>    13.3936     0.0000    72.0000 </r>
       <r>    13.5736     0.0000    72.0000 </r>
       <r>    13.7535     0.0000    72.0000 </r>
       <r>    13.9335     0.0000    72.0000 </r>
       <r>    14.1135     0.0000    72.0000 </r>
      </set>
     </set>
    </array>
   </total>
  </dos>
 </calculation>
 <structure name="finalpos" >
  <crystal>
   <varray name="basis" >
    <v>       5.14620015       0.00000000       0.00000000 </v>
    <v>       0.00000000       5.14620015       0.00000000 </v>
    <v>       0.00000000       0.00000000       5.14620015 </v>
   </varray>
   <i name="volume">    136.28875366 </i>
   <varray name="rec_basis" >
    <v>       0.19431813       0.00000000       0.00000000 </v>
    <v>       0.00000000       0.19431813       0.00000000 </v>
    <v>       0.00000000       0.00000000       0.19431813 </v>
   </varray>
  </crystal>
  <varray name="positions" >
   <v>       0.00000000       0.00000000       0.00000000 </v>
   <v>       0.00000000       0.50000000       0.50000000 </v>
   <v>       0.50000000       0.00000000       0.50000000 </v>
   <v>       0.50000000       0.50000000       0.00000000 </v>
   <v>       0.50000000       0.00000000       0.00000000 </v>
   <v>       0.50000000       0.50000000       0.50000000 </v>
   <v>       0.00000000       0.00000000       0.50000000 </v>
   <v>       0.00000000       0.50000000       0.00000000 </v>
  </varray>
 </structure>
</modeling>
