natom:   96
displacements:
- atom:    1
  displacement:
    [   0.0100000000000000,  0.0000000000000000,  0.0000000000000000 ]
- atom:   65
  displacement:
    [   0.0100000000000000,  0.0000000000000000,  0.0000000000000000 ]
lattice:
- [    13.5437524400000004,     0.0000000000000000,     0.0000000000000000 ] # a
- [     0.0000000000000000,    13.5437524400000004,     0.0000000000000000 ] # b
- [     0.0000000000000000,     0.0000000000000000,    13.5437524400000004 ] # c
atoms:
- symbol: Na # 1
  position: [  0.1250000000000000,  0.1250000000000000,  0.1250000000000000 ]
  mass: 22.989769
- symbol: Na # 2
  position: [  0.6250000000000000,  0.1250000000000000,  0.1250000000000000 ]
  mass: 22.989769
- symbol: Na # 3
  position: [  0.1250000000000000,  0.6250000000000000,  0.1250000000000000 ]
  mass: 22.989769
- symbol: Na # 4
  position: [  0.6250000000000000,  0.6250000000000000,  0.1250000000000000 ]
  mass: 22.989769
- symbol: Na # 5
  position: [  0.1250000000000000,  0.1250000000000000,  0.6250000000000000 ]
  mass: 22.989769
- symbol: Na # 6
  position: [  0.6250000000000000,  0.1250000000000000,  0.6250000000000000 ]
  mass: 22.989769
- symbol: Na # 7
  position: [  0.1250000000000000,  0.6250000000000000,  0.6250000000000000 ]
  mass: 22.989769
- symbol: Na # 8
  position: [  0.6250000000000000,  0.6250000000000000,  0.6250000000000000 ]
  mass: 22.989769
- symbol: Na # 9
  position: [  0.1250000000000000,  0.1250000000000000,  0.3750000000000000 ]
  mass: 22.989769
- symbol: Na # 10
  position: [  0.6250000000000000,  0.1250000000000000,  0.3750000000000000 ]
  mass: 22.989769
- symbol: Na # 11
  position: [  0.1250000000000000,  0.6250000000000000,  0.3750000000000000 ]
  mass: 22.989769
- symbol: Na # 12
  position: [  0.6250000000000000,  0.6250000000000000,  0.3750000000000000 ]
  mass: 22.989769
- symbol: Na # 13
  position: [  0.1250000000000000,  0.1250000000000000,  0.8750000000000000 ]
  mass: 22.989769
- symbol: Na # 14
  position: [  0.6250000000000000,  0.1250000000000000,  0.8750000000000000 ]
  mass: 22.989769
- symbol: Na # 15
  position: [  0.1250000000000000,  0.6250000000000000,  0.8750000000000000 ]
  mass: 22.989769
- symbol: Na # 16
  position: [  0.6250000000000000,  0.6250000000000000,  0.8750000000000000 ]
  mass: 22.989769
- symbol: Na # 17
  position: [  0.1250000000000000,  0.3750000000000000,  0.3750000000000000 ]
  mass: 22.989769
- symbol: Na # 18
  position: [  0.6250000000000000,  0.3750000000000000,  0.3750000000000000 ]
  mass: 22.989769
- symbol: Na # 19
  position: [  0.1250000000000000,  0.8750000000000000,  0.3750000000000000 ]
  mass: 22.989769
- symbol: Na # 20
  position: [  0.6250000000000000,  0.8750000000000000,  0.3750000000000000 ]
  mass: 22.989769
- symbol: Na # 21
  position: [  0.1250000000000000,  0.3750000000000000,  0.8750000000000000 ]
  mass: 22.989769
- symbol: Na # 22
  position: [  0.6250000000000000,  0.3750000000000000,  0.8750000000000000 ]
  mass: 22.989769
- symbol: Na # 23
  position: [  0.1250000000000000,  0.8750000000000000,  0.8750000000000000 ]
  mass: 22.989769
- symbol: Na # 24
  position: [  0.6250000000000000,  0.8750000000000000,  0.8750000000000000 ]
  mass: 22.989769
- symbol: Na # 25
  position: [  0.1250000000000000,  0.3750000000000000,  0.1250000000000000 ]
  mass: 22.989769
- symbol: Na # 26
  position: [  0.6250000000000000,  0.3750000000000000,  0.1250000000000000 ]
  mass: 22.989769
- symbol: Na # 27
  position: [  0.1250000000000000,  0.8750000000000000,  0.1250000000000000 ]
  mass: 22.989769
- symbol: Na # 28
  position: [  0.6250000000000000,  0.8750000000000000,  0.1250000000000000 ]
  mass: 22.989769
- symbol: Na # 29
  position: [  0.1250000000000000,  0.3750000000000000,  0.6250000000000000 ]
  mass: 22.989769
- symbol: Na # 30
  position: [  0.6250000000000000,  0.3750000000000000,  0.6250000000000000 ]
  mass: 22.989769
- symbol: Na # 31
  position: [  0.1250000000000000,  0.8750000000000000,  0.6250000000000000 ]
  mass: 22.989769
- symbol: Na # 32
  position: [  0.6250000000000000,  0.8750000000000000,  0.6250000000000000 ]
  mass: 22.989769
- symbol: Na # 33
  position: [  0.3750000000000000,  0.1250000000000000,  0.3750000000000000 ]
  mass: 22.989769
- symbol: Na # 34
  position: [  0.8750000000000000,  0.1250000000000000,  0.3750000000000000 ]
  mass: 22.989769
- symbol: Na # 35
  position: [  0.3750000000000000,  0.6250000000000000,  0.3750000000000000 ]
  mass: 22.989769
- symbol: Na # 36
  position: [  0.8750000000000000,  0.6250000000000000,  0.3750000000000000 ]
  mass: 22.989769
- symbol: Na # 37
  position: [  0.3750000000000000,  0.1250000000000000,  0.8750000000000000 ]
  mass: 22.989769
- symbol: Na # 38
  position: [  0.8750000000000000,  0.1250000000000000,  0.8750000000000000 ]
  mass: 22.989769
- symbol: Na # 39
  position: [  0.3750000000000000,  0.6250000000000000,  0.8750000000000000 ]
  mass: 22.989769
- symbol: Na # 40
  position: [  0.8750000000000000,  0.6250000000000000,  0.8750000000000000 ]
  mass: 22.989769
- symbol: Na # 41
  position: [  0.3750000000000000,  0.1250000000000000,  0.1250000000000000 ]
  mass: 22.989769
- symbol: Na # 42
  position: [  0.8750000000000000,  0.1250000000000000,  0.1250000000000000 ]
  mass: 22.989769
- symbol: Na # 43
  position: [  0.3750000000000000,  0.6250000000000000,  0.1250000000000000 ]
  mass: 22.989769
- symbol: Na # 44
  position: [  0.8750000000000000,  0.6250000000000000,  0.1250000000000000 ]
  mass: 22.989769
- symbol: Na # 45
  position: [  0.3750000000000000,  0.1250000000000000,  0.6250000000000000 ]
  mass: 22.989769
- symbol: Na # 46
  position: [  0.8750000000000000,  0.1250000000000000,  0.6250000000000000 ]
  mass: 22.989769
- symbol: Na # 47
  position: [  0.3750000000000000,  0.6250000000000000,  0.6250000000000000 ]
  mass: 22.989769
- symbol: Na # 48
  position: [  0.8750000000000000,  0.6250000000000000,  0.6250000000000000 ]
  mass: 22.989769
- symbol: Na # 49
  position: [  0.3750000000000000,  0.3750000000000000,  0.1250000000000000 ]
  mass: 22.989769
- symbol: Na # 50
  position: [  0.8750000000000000,  0.3750000000000000,  0.1250000000000000 ]
  mass: 22.989769
- symbol: Na # 51
  position: [  0.3750000000000000,  0.8750000000000000,  0.1250000000000000 ]
  mass: 22.989769
- symbol: Na # 52
  position: [  0.8750000000000000,  0.8750000000000000,  0.1250000000000000 ]
  mass: 22.989769
- symbol: Na # 53
  position: [  0.3750000000000000,  0.3750000000000000,  0.6250000000000000 ]
  mass: 22.989769
- symbol: Na # 54
  position: [  0.8750000000000000,  0.3750000000000000,  0.6250000000000000 ]
  mass: 22.989769
- symbol: Na # 55
  position: [  0.3750000000000000,  0.8750000000000000,  0.6250000000000000 ]
  mass: 22.989769
- symbol: Na # 56
  position: [  0.8750000000000000,  0.8750000000000000,  0.6250000000000000 ]
  mass: 22.989769
- symbol: Na # 57
  position: [  0.3750000000000000,  0.3750000000000000,  0.3750000000000000 ]
  mass: 22.989769
- symbol: Na # 58
  position: [  0.8750000000000000,  0.3750000000000000,  0.3750000000000000 ]
  mass: 22.989769
- symbol: Na # 59
  position: [  0.3750000000000000,  0.8750000000000000,  0.3750000000000000 ]
  mass: 22.989769
- symbol: Na # 60
  position: [  0.8750000000000000,  0.8750000000000000,  0.3750000000000000 ]
  mass: 22.989769
- symbol: Na # 61
  position: [  0.3750000000000000,  0.3750000000000000,  0.8750000000000000 ]
  mass: 22.989769
- symbol: Na # 62
  position: [  0.8750000000000000,  0.3750000000000000,  0.8750000000000000 ]
  mass: 22.989769
- symbol: Na # 63
  position: [  0.3750000000000000,  0.8750000000000000,  0.8750000000000000 ]
  mass: 22.989769
- symbol: Na # 64
  position: [  0.8750000000000000,  0.8750000000000000,  0.8750000000000000 ]
  mass: 22.989769
- symbol: Se # 65
  position: [  0.0000000000000000,  0.0000000000000000,  0.0000000000000000 ]
  mass: 78.960000
- symbol: Se # 66
  position: [  0.5000000000000000,  0.0000000000000000,  0.0000000000000000 ]
  mass: 78.960000
- symbol: Se # 67
  position: [  0.0000000000000000,  0.5000000000000000,  0.0000000000000000 ]
  mass: 78.960000
- symbol: Se # 68
  position: [  0.5000000000000000,  0.5000000000000000,  0.0000000000000000 ]
  mass: 78.960000
- symbol: Se # 69
  position: [  0.0000000000000000,  0.0000000000000000,  0.5000000000000000 ]
  mass: 78.960000
- symbol: Se # 70
  position: [  0.5000000000000000,  0.0000000000000000,  0.5000000000000000 ]
  mass: 78.960000
- symbol: Se # 71
  position: [  0.0000000000000000,  0.5000000000000000,  0.5000000000000000 ]
  mass: 78.960000
- symbol: Se # 72
  position: [  0.5000000000000000,  0.5000000000000000,  0.5000000000000000 ]
  mass: 78.960000
- symbol: Se # 73
  position: [  0.0000000000000000,  0.2500000000000000,  0.2500000000000000 ]
  mass: 78.960000
- symbol: Se # 74
  position: [  0.5000000000000000,  0.2500000000000000,  0.2500000000000000 ]
  mass: 78.960000
- symbol: Se # 75
  position: [  0.0000000000000000,  0.7500000000000000,  0.2500000000000000 ]
  mass: 78.960000
- symbol: Se # 76
  position: [  0.5000000000000000,  0.7500000000000000,  0.2500000000000000 ]
  mass: 78.960000
- symbol: Se # 77
  position: [  0.0000000000000000,  0.2500000000000000,  0.7500000000000000 ]
  mass: 78.960000
- symbol: Se # 78
  position: [  0.5000000000000000,  0.2500000000000000,  0.7500000000000000 ]
  mass: 78.960000
- symbol: Se # 79
  position: [  0.0000000000000000,  0.7500000000000000,  0.7500000000000000 ]
  mass: 78.960000
- symbol: Se # 80
  position: [  0.5000000000000000,  0.7500000000000000,  0.7500000000000000 ]
  mass: 78.960000
- symbol: Se # 81
  position: [  0.2500000000000000,  0.0000000000000000,  0.2500000000000000 ]
  mass: 78.960000
- symbol: Se # 82
  position: [  0.7500000000000000,  0.0000000000000000,  0.2500000000000000 ]
  mass: 78.960000
- symbol: Se # 83
  position: [  0.2500000000000000,  0.5000000000000000,  0.2500000000000000 ]
  mass: 78.960000
- symbol: Se # 84
  position: [  0.7500000000000000,  0.5000000000000000,  0.2500000000000000 ]
  mass: 78.960000
- symbol: Se # 85
  position: [  0.2500000000000000,  0.0000000000000000,  0.7500000000000000 ]
  mass: 78.960000
- symbol: Se # 86
  position: [  0.7500000000000000,  0.0000000000000000,  0.7500000000000000 ]
  mass: 78.960000
- symbol: Se # 87
  position: [  0.2500000000000000,  0.5000000000000000,  0.7500000000000000 ]
  mass: 78.960000
- symbol: Se # 88
  position: [  0.7500000000000000,  0.5000000000000000,  0.7500000000000000 ]
  mass: 78.960000
- symbol: Se # 89
  position: [  0.2500000000000000,  0.2500000000000000,  0.0000000000000000 ]
  mass: 78.960000
- symbol: Se # 90
  position: [  0.7500000000000000,  0.2500000000000000,  0.0000000000000000 ]
  mass: 78.960000
- symbol: Se # 91
  position: [  0.2500000000000000,  0.7500000000000000,  0.0000000000000000 ]
  mass: 78.960000
- symbol: Se # 92
  position: [  0.7500000000000000,  0.7500000000000000,  0.0000000000000000 ]
  mass: 78.960000
- symbol: Se # 93
  position: [  0.2500000000000000,  0.2500000000000000,  0.5000000000000000 ]
  mass: 78.960000
- symbol: Se # 94
  position: [  0.7500000000000000,  0.2500000000000000,  0.5000000000000000 ]
  mass: 78.960000
- symbol: Se # 95
  position: [  0.2500000000000000,  0.7500000000000000,  0.5000000000000000 ]
  mass: 78.960000
- symbol: Se # 96
  position: [  0.7500000000000000,  0.7500000000000000,  0.5000000000000000 ]
  mass: 78.960000