96   
2    

1    
  0.0100000000000000   0.0000000000000000   0.0000000000000000
  -0.0216441400    0.0000000000    0.0000000000
   0.0003458100    0.0000000000    0.0000000000
  -0.0001393900    0.0000000000    0.0000000000
   0.0001277700    0.0000000000    0.0000000000
  -0.0001393900    0.0000000000    0.0000000000
   0.0001277700    0.0000000000    0.0000000000
  -0.0002592800    0.0000000000    0.0000000000
   0.0000751600    0.0000000000    0.0000000000
  -0.0014163300    0.0004733100   -0.0000076300
   0.0002219500   -0.0000922600    0.0000003400
  -0.0001944200   -0.0000927600    0.0000000800
   0.0001004500   -0.0000272600   -0.0000003400
  -0.0014163300   -0.0004733100    0.0000076300
   0.0002219500    0.0000922600   -0.0000003400
  -0.0001944200    0.0000927600   -0.0000000800
   0.0001004500    0.0000272600    0.0000003400
  -0.0006346000   -0.0002535200   -0.0002535200
   0.0001648900    0.0000603400    0.0000603400
  -0.0006329000   -0.0002534000    0.0002534000
   0.0001643500    0.0000600700   -0.0000600700
  -0.0006329000    0.0002534000   -0.0002534000
   0.0001643500   -0.0000600700    0.0000600700
  -0.0006346000    0.0002535200    0.0002535200
   0.0001648900   -0.0000603400   -0.0000603400
  -0.0014163300   -0.0000076300    0.0004733100
   0.0002219500    0.0000003400   -0.0000922600
  -0.0014163300    0.0000076300   -0.0004733100
   0.0002219500   -0.0000003400    0.0000922600
  -0.0001944200    0.0000000800   -0.0000927600
   0.0001004500   -0.0000003400   -0.0000272600
  -0.0001944200   -0.0000000800    0.0000927600
   0.0001004500    0.0000003400    0.0000272600
   0.0003944600    0.0002526300    0.0004574700
   0.0003943200    0.0002547300   -0.0004551300
   0.0000455900   -0.0000598200   -0.0000117700
   0.0000457600   -0.0000607900    0.0000118400
   0.0003944600   -0.0002526300   -0.0004574700
   0.0003943200   -0.0002547300    0.0004551300
   0.0000455900    0.0000598200    0.0000117700
   0.0000457600    0.0000607900   -0.0000118400
   0.0048672300    0.0000000000    0.0000000000
   0.0047918600    0.0000000000    0.0000000000
   0.0000050500    0.0000000000    0.0000000000
   0.0000049500    0.0000000000    0.0000000000
   0.0000050500    0.0000000000    0.0000000000
   0.0000049500    0.0000000000    0.0000000000
   0.0000908500    0.0000000000    0.0000000000
   0.0000912900    0.0000000000    0.0000000000
   0.0003944600    0.0004574700    0.0002526300
   0.0003943200   -0.0004551300    0.0002547300
   0.0003944600   -0.0004574700   -0.0002526300
   0.0003943200    0.0004551300   -0.0002547300
   0.0000455900   -0.0000117700   -0.0000598200
   0.0000457600    0.0000118400   -0.0000607900
   0.0000455900    0.0000117700    0.0000598200
   0.0000457600   -0.0000118400    0.0000607900
  -0.0000237900    0.0000834900    0.0000834900
   0.0004530200   -0.0002643900   -0.0002643900
   0.0004517700   -0.0002636800    0.0002636800
  -0.0000241200    0.0000832900   -0.0000832900
   0.0004517700    0.0002636800   -0.0002636800
  -0.0000241200   -0.0000832900    0.0000832900
  -0.0000237900   -0.0000834900   -0.0000834900
   0.0004530200    0.0002643900    0.0002643900
   0.0040183400    0.0020317700    0.0020317700
  -0.0006725600    0.0002221100    0.0002221100
   0.0003367800    0.0000859700   -0.0002245500
  -0.0003458500   -0.0001839200   -0.0000064400
   0.0003367800   -0.0002245500    0.0000859700
  -0.0003458500   -0.0000064400   -0.0001839200
   0.0001260600    0.0002772700    0.0002772700
  -0.0001266300   -0.0000030500   -0.0000030500
   0.0040183400   -0.0020317700   -0.0020317700
  -0.0006725600   -0.0002221100   -0.0002221100
   0.0003367800   -0.0000859700    0.0002245500
  -0.0003458500    0.0001839200    0.0000064400
   0.0003367800    0.0002245500   -0.0000859700
  -0.0003458500    0.0000064400    0.0001839200
   0.0001260600   -0.0002772700   -0.0002772700
  -0.0001266300    0.0000030500    0.0000030500
   0.0040855100   -0.0021176800    0.0021176800
  -0.0006702500   -0.0002206100    0.0002206100
   0.0003367800   -0.0000864500   -0.0002239100
  -0.0003472300    0.0001841400   -0.0000066800
   0.0003367800    0.0002239100    0.0000864500
  -0.0003472300    0.0000066800   -0.0001841400
   0.0001255800   -0.0002771600    0.0002771600
  -0.0001270000    0.0000026600   -0.0000026600
   0.0040855100    0.0021176800   -0.0021176800
  -0.0006702500    0.0002206100   -0.0002206100
   0.0003367800    0.0000864500    0.0002239100
  -0.0003472300   -0.0001841400    0.0000066800
   0.0003367800   -0.0002239100   -0.0000864500
  -0.0003472300   -0.0000066800    0.0001841400
   0.0001255800    0.0002771600   -0.0002771600
  -0.0001270000   -0.0000026600    0.0000026600

65   
  0.0100000000000000   0.0000000000000000   0.0000000000000000
   0.0040822100    0.0021196400    0.0021196400
  -0.0006701100    0.0000842500    0.0000842500
   0.0003402300    0.0002206200   -0.0002243400
  -0.0003463800   -0.0001839000    0.0002765000
   0.0003402300   -0.0002243400    0.0002206200
  -0.0003463800    0.0002765000   -0.0001839000
   0.0001262300   -0.0000082400   -0.0000082400
  -0.0001255100   -0.0000025400   -0.0000025400
   0.0003402300   -0.0002243400   -0.0002206200
  -0.0003463800    0.0002765000    0.0001839000
   0.0001262300   -0.0000082400    0.0000082400
  -0.0001255100   -0.0000025400    0.0000025400
   0.0040822100    0.0021196400   -0.0021196400
  -0.0006701100    0.0000842500   -0.0000842500
   0.0003402300    0.0002206200    0.0002243400
  -0.0003463800   -0.0001839000   -0.0002765000
   0.0001262300    0.0000082400    0.0000082400
  -0.0001255100    0.0000025400    0.0000025400
   0.0003402300    0.0002243400   -0.0002206200
  -0.0003463800   -0.0002765000    0.0001839000
   0.0003402300   -0.0002206200    0.0002243400
  -0.0003463800    0.0001839000   -0.0002765000
   0.0040822100   -0.0021196400   -0.0021196400
  -0.0006701100   -0.0000842500   -0.0000842500
   0.0003402300   -0.0002206200   -0.0002243400
  -0.0003463800    0.0001839000    0.0002765000
   0.0040822100   -0.0021196400    0.0021196400
  -0.0006701100   -0.0000842500    0.0000842500
   0.0001262300    0.0000082400   -0.0000082400
  -0.0001255100    0.0000025400   -0.0000025400
   0.0003402300    0.0002243400    0.0002206200
  -0.0003463800   -0.0002765000   -0.0001839000
  -0.0003467000   -0.0002772700   -0.0001832000
   0.0003373900    0.0002235600    0.0002218700
  -0.0001256500    0.0000033500   -0.0000033500
   0.0001271200    0.0000050600   -0.0000050600
  -0.0006696800   -0.0000876600    0.0000876600
   0.0040243800   -0.0020305000    0.0020305000
  -0.0003467000    0.0001832000    0.0002772700
   0.0003373900   -0.0002218700   -0.0002235600
  -0.0006696800   -0.0000876600   -0.0000876600
   0.0040243800   -0.0020305000   -0.0020305000
  -0.0003467000    0.0001832000   -0.0002772700
   0.0003373900   -0.0002218700    0.0002235600
  -0.0003467000   -0.0002772700    0.0001832000
   0.0003373900    0.0002235600   -0.0002218700
  -0.0001256500    0.0000033500    0.0000033500
   0.0001271200    0.0000050600    0.0000050600
  -0.0003467000   -0.0001832000   -0.0002772700
   0.0003373900    0.0002218700    0.0002235600
  -0.0006696800    0.0000876600   -0.0000876600
   0.0040243800    0.0020305000   -0.0020305000
  -0.0001256500   -0.0000033500    0.0000033500
   0.0001271200   -0.0000050600    0.0000050600
  -0.0003467000    0.0002772700    0.0001832000
   0.0003373900   -0.0002235600   -0.0002218700
  -0.0001256500   -0.0000033500   -0.0000033500
   0.0001271200   -0.0000050600   -0.0000050600
  -0.0003467000    0.0002772700   -0.0001832000
   0.0003373900   -0.0002235600    0.0002218700
  -0.0003467000   -0.0001832000    0.0002772700
   0.0003373900    0.0002218700   -0.0002235600
  -0.0006696800    0.0000876600    0.0000876600
   0.0040243800    0.0020305000    0.0020305000
  -0.0373181900    0.0000000000    0.0000000000
   0.0011910700    0.0000000000    0.0000000000
  -0.0006332500    0.0000000000    0.0000000000
   0.0009166800    0.0000000000    0.0000000000
  -0.0006332500    0.0000000000    0.0000000000
   0.0009166800    0.0000000000    0.0000000000
  -0.0001973200    0.0000000000    0.0000000000
   0.0002160500    0.0000000000    0.0000000000
  -0.0009839000   -0.0000015200   -0.0000015200
   0.0006247000    0.0000000800    0.0000000800
  -0.0009839000    0.0000015200   -0.0000015200
   0.0006247000   -0.0000000800    0.0000000800
  -0.0009839000   -0.0000015200    0.0000015200
   0.0006247000    0.0000000800   -0.0000000800
  -0.0009839000    0.0000015200    0.0000015200
   0.0006247000   -0.0000000800   -0.0000000800
   0.0012724400    0.0000000000    0.0019192400
   0.0012719000    0.0000000000   -0.0019118300
  -0.0000204500    0.0000000000    0.0002607900
  -0.0000173800    0.0000000000   -0.0002580300
   0.0012724400    0.0000000000   -0.0019192400
   0.0012719000    0.0000000000    0.0019118300
  -0.0000204500    0.0000000000   -0.0002607900
  -0.0000173800    0.0000000000    0.0002580300
   0.0012724400    0.0019192400    0.0000000000
   0.0012719000   -0.0019118300    0.0000000000
   0.0012724400   -0.0019192400    0.0000000000
   0.0012719000    0.0019118300    0.0000000000
  -0.0000204500    0.0002607900    0.0000000000
  -0.0000173800   -0.0002580300    0.0000000000
  -0.0000204500   -0.0002607900    0.0000000000
  -0.0000173800    0.0002580300    0.0000000000
