  64  64   0   0
  0.1755761E+02  0.1039637E-08  0.1039637E-08  0.1039637E-08  0.5000000E-15
  1.000000000000000E-004
  CAR 
 unknown system                          
     12.73734408    -40.16222098  301      3.61216910      1.00000000
    -40.162  0.0000E+00  0.0000E+00
    -39.986  0.0000E+00  0.0000E+00
    -39.810  0.0000E+00  0.0000E+00
    -39.633  0.0000E+00  0.0000E+00
    -39.457  0.0000E+00  0.0000E+00
    -39.281  0.0000E+00  0.0000E+00
    -39.104  0.0000E+00  0.0000E+00
    -38.928  0.0000E+00  0.0000E+00
    -38.752  0.0000E+00  0.0000E+00
    -38.575  0.0000E+00  0.0000E+00
    -38.399  0.0000E+00  0.0000E+00
    -38.223  0.0000E+00  0.0000E+00
    -38.046  0.0000E+00  0.0000E+00
    -37.870  0.0000E+00  0.0000E+00
    -37.694  0.1089E+04  0.1920E+03
    -37.517  0.0000E+00  0.1920E+03
    -37.341  0.0000E+00  0.1920E+03
    -37.165  0.0000E+00  0.1920E+03
    -36.988  0.0000E+00  0.1920E+03
    -36.812  0.0000E+00  0.1920E+03
    -36.636  0.0000E+00  0.1920E+03
    -36.459  0.0000E+00  0.1920E+03
    -36.283  0.0000E+00  0.1920E+03
    -36.107  0.0000E+00  0.1920E+03
    -35.930  0.0000E+00  0.1920E+03
    -35.754  0.0000E+00  0.1920E+03
    -35.578  0.0000E+00  0.1920E+03
    -35.401  0.0000E+00  0.1920E+03
    -35.225  0.0000E+00  0.1920E+03
    -35.049  0.0000E+00  0.1920E+03
    -34.872  0.0000E+00  0.1920E+03
    -34.696  0.0000E+00  0.1920E+03
    -34.520  0.0000E+00  0.1920E+03
    -34.343  0.0000E+00  0.1920E+03
    -34.167  0.0000E+00  0.1920E+03
    -33.991  0.0000E+00  0.1920E+03
    -33.814  0.0000E+00  0.1920E+03
    -33.638  0.0000E+00  0.1920E+03
    -33.462  0.0000E+00  0.1920E+03
    -33.285  0.0000E+00  0.1920E+03
    -33.109  0.0000E+00  0.1920E+03
    -32.933  0.0000E+00  0.1920E+03
    -32.756  0.0000E+00  0.1920E+03
    -32.580  0.0000E+00  0.1920E+03
    -32.404  0.0000E+00  0.1920E+03
    -32.227  0.0000E+00  0.1920E+03
    -32.051  0.0000E+00  0.1920E+03
    -31.875  0.0000E+00  0.1920E+03
    -31.698  0.0000E+00  0.1920E+03
    -31.522  0.0000E+00  0.1920E+03
    -31.346  0.0000E+00  0.1920E+03
    -31.169  0.0000E+00  0.1920E+03
    -30.993  0.0000E+00  0.1920E+03
    -30.817  0.0000E+00  0.1920E+03
    -30.640  0.0000E+00  0.1920E+03
    -30.464  0.0000E+00  0.1920E+03
    -30.288  0.0000E+00  0.1920E+03
    -30.111  0.0000E+00  0.1920E+03
    -29.935  0.0000E+00  0.1920E+03
    -29.759  0.0000E+00  0.1920E+03
    -29.582  0.0000E+00  0.1920E+03
    -29.406  0.0000E+00  0.1920E+03
    -29.230  0.0000E+00  0.1920E+03
    -29.053  0.0000E+00  0.1920E+03
    -28.877  0.0000E+00  0.1920E+03
    -28.701  0.0000E+00  0.1920E+03
    -28.524  0.0000E+00  0.1920E+03
    -28.348  0.0000E+00  0.1920E+03
    -28.172  0.0000E+00  0.1920E+03
    -27.995  0.0000E+00  0.1920E+03
    -27.819  0.0000E+00  0.1920E+03
    -27.643  0.0000E+00  0.1920E+03
    -27.466  0.0000E+00  0.1920E+03
    -27.290  0.0000E+00  0.1920E+03
    -27.114  0.0000E+00  0.1920E+03
    -26.937  0.0000E+00  0.1920E+03
    -26.761  0.0000E+00  0.1920E+03
    -26.585  0.0000E+00  0.1920E+03
    -26.408  0.0000E+00  0.1920E+03
    -26.232  0.0000E+00  0.1920E+03
    -26.056  0.0000E+00  0.1920E+03
    -25.879  0.0000E+00  0.1920E+03
    -25.703  0.0000E+00  0.1920E+03
    -25.527  0.0000E+00  0.1920E+03
    -25.350  0.0000E+00  0.1920E+03
    -25.174  0.0000E+00  0.1920E+03
    -24.998  0.0000E+00  0.1920E+03
    -24.821  0.0000E+00  0.1920E+03
    -24.645  0.0000E+00  0.1920E+03
    -24.469  0.0000E+00  0.1920E+03
    -24.292  0.0000E+00  0.1920E+03
    -24.116  0.0000E+00  0.1920E+03
    -23.940  0.0000E+00  0.1920E+03
    -23.763  0.0000E+00  0.1920E+03
    -23.587  0.0000E+00  0.1920E+03
    -23.411  0.0000E+00  0.1920E+03
    -23.234  0.0000E+00  0.1920E+03
    -23.058  0.0000E+00  0.1920E+03
    -22.882  0.0000E+00  0.1920E+03
    -22.705  0.0000E+00  0.1920E+03
    -22.529  0.0000E+00  0.1920E+03
    -22.353  0.0000E+00  0.1920E+03
    -22.176  0.0000E+00  0.1920E+03
    -22.000  0.0000E+00  0.1920E+03
    -21.824  0.0000E+00  0.1920E+03
    -21.647  0.0000E+00  0.1920E+03
    -21.471  0.0000E+00  0.1920E+03
    -21.295  0.0000E+00  0.1920E+03
    -21.118  0.0000E+00  0.1920E+03
    -20.942  0.0000E+00  0.1920E+03
    -20.766  0.0000E+00  0.1920E+03
    -20.589  0.0000E+00  0.1920E+03
    -20.413  0.0000E+00  0.1920E+03
    -20.237  0.0000E+00  0.1920E+03
    -20.060  0.0000E+00  0.1920E+03
    -19.884  0.0000E+00  0.1920E+03
    -19.708  0.0000E+00  0.1920E+03
    -19.531  0.0000E+00  0.1920E+03
    -19.355  0.0000E+00  0.1920E+03
    -19.179  0.0000E+00  0.1920E+03
    -19.002  0.0000E+00  0.1920E+03
    -18.826  0.0000E+00  0.1920E+03
    -18.650  0.0000E+00  0.1920E+03
    -18.473  0.0000E+00  0.1920E+03
    -18.297  0.0000E+00  0.1920E+03
    -18.121  0.0000E+00  0.1920E+03
    -17.944  0.0000E+00  0.1920E+03
    -17.768  0.0000E+00  0.1920E+03
    -17.592  0.0000E+00  0.1920E+03
    -17.415  0.0000E+00  0.1920E+03
    -17.239  0.0000E+00  0.1920E+03
    -17.063  0.0000E+00  0.1920E+03
    -16.886  0.0000E+00  0.1920E+03
    -16.710  0.0000E+00  0.1920E+03
    -16.534  0.0000E+00  0.1920E+03
    -16.357  0.0000E+00  0.1920E+03
    -16.181  0.0000E+00  0.1920E+03
    -16.005  0.0000E+00  0.1920E+03
    -15.828  0.0000E+00  0.1920E+03
    -15.652  0.0000E+00  0.1920E+03
    -15.476  0.0000E+00  0.1920E+03
    -15.299  0.0000E+00  0.1920E+03
    -15.123  0.0000E+00  0.1920E+03
    -14.947  0.0000E+00  0.1920E+03
    -14.770  0.0000E+00  0.1920E+03
    -14.594  0.0000E+00  0.1920E+03
    -14.418  0.0000E+00  0.1920E+03
    -14.241  0.0000E+00  0.1920E+03
    -14.065  0.0000E+00  0.1920E+03
    -13.889  0.0000E+00  0.1920E+03
    -13.712  0.0000E+00  0.1920E+03
    -13.536  0.0000E+00  0.1920E+03
    -13.360  0.0000E+00  0.1920E+03
    -13.183  0.0000E+00  0.1920E+03
    -13.007  0.0000E+00  0.1920E+03
    -12.831  0.0000E+00  0.1920E+03
    -12.654  0.0000E+00  0.1920E+03
    -12.478  0.0000E+00  0.1920E+03
    -12.302  0.0000E+00  0.1920E+03
    -12.125  0.0000E+00  0.1920E+03
    -11.949  0.0000E+00  0.1920E+03
    -11.773  0.0000E+00  0.1920E+03
    -11.596  0.0000E+00  0.1920E+03
    -11.420  0.0000E+00  0.1920E+03
    -11.244  0.0000E+00  0.1920E+03
    -11.067  0.0000E+00  0.1920E+03
    -10.891  0.0000E+00  0.1920E+03
    -10.715  0.0000E+00  0.1920E+03
    -10.538  0.0000E+00  0.1920E+03
    -10.362  0.0000E+00  0.1920E+03
    -10.186  0.0000E+00  0.1920E+03
    -10.009  0.0000E+00  0.1920E+03
     -9.833  0.0000E+00  0.1920E+03
     -9.657  0.0000E+00  0.1920E+03
     -9.480  0.0000E+00  0.1920E+03
     -9.304  0.0000E+00  0.1920E+03
     -9.128  0.1418E+01  0.1922E+03
     -8.951  0.8507E+01  0.1937E+03
     -8.775  0.1701E+02  0.1967E+03
     -8.599  0.1134E+02  0.1987E+03
     -8.422  0.8506E+01  0.2002E+03
     -8.246  0.3403E+02  0.2062E+03
     -8.070  0.0000E+00  0.2122E+03
     -7.893  0.4428E+02  0.2201E+03
     -7.717  0.3199E+02  0.2294E+03
     -7.541  0.3403E+02  0.2477E+03
     -7.364  0.8507E+01  0.2560E+03
     -7.188  0.0000E+00  0.2560E+03
     -7.012  0.0000E+00  0.2560E+03
     -6.835  0.0000E+00  0.2560E+03
     -6.659  0.0000E+00  0.2560E+03
     -6.483  0.0000E+00  0.2560E+03
     -6.306  0.0000E+00  0.2560E+03
     -6.130  0.0000E+00  0.2560E+03
     -5.954  0.0000E+00  0.2560E+03
     -5.778  0.0000E+00  0.2560E+03
     -5.601  0.0000E+00  0.2560E+03
     -5.425  0.0000E+00  0.2560E+03
     -5.249  0.0000E+00  0.2560E+03
     -5.072  0.0000E+00  0.2560E+03
     -4.896  0.0000E+00  0.2560E+03
     -4.720  0.0000E+00  0.2560E+03
     -4.543  0.0000E+00  0.2560E+03
     -4.367  0.0000E+00  0.2560E+03
     -4.191  0.0000E+00  0.2560E+03
     -4.014  0.0000E+00  0.2560E+03
     -3.838  0.0000E+00  0.2560E+03
     -3.662  0.0000E+00  0.2560E+03
     -3.485  0.0000E+00  0.2560E+03
     -3.309  0.0000E+00  0.2560E+03
     -3.133  0.0000E+00  0.2560E+03
     -2.956  0.0000E+00  0.2560E+03
     -2.780  0.0000E+00  0.2560E+03
     -2.604  0.0000E+00  0.2560E+03
     -2.427  0.0000E+00  0.2560E+03
     -2.251  0.0000E+00  0.2560E+03
     -2.075  0.0000E+00  0.2560E+03
     -1.898  0.0000E+00  0.2560E+03
     -1.722  0.0000E+00  0.2560E+03
     -1.546  0.0000E+00  0.2560E+03
     -1.369  0.5671E+01  0.2570E+03
     -1.193  0.0000E+00  0.2570E+03
     -1.017  0.2235E-05  0.2570E+03
     -0.840  0.3403E+02  0.2690E+03
     -0.664  0.1619E-11  0.2698E+03
     -0.488  0.1701E+02  0.2787E+03
     -0.311  0.5482E+02  0.2884E+03
     -0.135  0.0000E+00  0.3042E+03
      0.041  0.0000E+00  0.3042E+03
      0.218  0.1517E+02  0.3069E+03
      0.394  0.3380E+02  0.3162E+03
      0.570  0.0000E+00  0.3222E+03
      0.747  0.0000E+00  0.3242E+03
      0.923  0.8491E+01  0.3257E+03
      1.099  0.5503E+01  0.3267E+03
      1.276  0.5104E+02  0.3392E+03
      1.452  0.5104E+02  0.3542E+03
      1.628  0.0000E+00  0.3572E+03
      1.805  0.8403E+01  0.3587E+03
      1.981  0.7231E+01  0.3660E+03
      2.157  0.5104E+02  0.3887E+03
      2.334  0.6394E+02  0.4000E+03
      2.510  0.1605E+02  0.4036E+03
      2.686  0.7277E+01  0.4125E+03
      2.863  0.4994E+02  0.4291E+03
      3.039  0.0000E+00  0.4372E+03
      3.215  0.3970E+02  0.4442E+03
      3.392  0.1031E+02  0.4461E+03
      3.568  0.4253E+01  0.4480E+03
      3.744  0.0000E+00  0.4480E+03
      3.921  0.0000E+00  0.4480E+03
      4.097  0.0000E+00  0.4480E+03
      4.273  0.0000E+00  0.4480E+03
      4.450  0.0000E+00  0.4480E+03
      4.626  0.0000E+00  0.4480E+03
      4.802  0.0000E+00  0.4480E+03
      4.979  0.0000E+00  0.4480E+03
      5.155  0.0000E+00  0.4480E+03
      5.331  0.0000E+00  0.4480E+03
      5.508  0.0000E+00  0.4480E+03
      5.684  0.0000E+00  0.4480E+03
      5.860  0.0000E+00  0.4480E+03
      6.037  0.0000E+00  0.4480E+03
      6.213  0.1586E+01  0.4483E+03
      6.389  0.0000E+00  0.4488E+03
      6.566  0.0000E+00  0.4488E+03
      6.742  0.0000E+00  0.4488E+03
      6.918  0.8507E+01  0.4502E+03
      7.095  0.6972E-03  0.4503E+03
      7.271  0.1701E+02  0.4535E+03
      7.447  0.0000E+00  0.4565E+03
      7.624  0.0000E+00  0.4565E+03
      7.800  0.3358E+02  0.4624E+03
      7.976  0.5671E+01  0.4702E+03
      8.153  0.0000E+00  0.4718E+03
      8.329  0.9049E+01  0.4733E+03
      8.505  0.8507E+01  0.4768E+03
      8.682  0.3822E+02  0.4835E+03
      8.858  0.3107E+02  0.5017E+03
      9.034  0.4248E+02  0.5097E+03
      9.211  0.1430E-03  0.5188E+03
      9.387  0.0000E+00  0.5248E+03
      9.563  0.1701E+02  0.5278E+03
      9.740  0.0000E+00  0.5278E+03
      9.916  0.2552E+02  0.5322E+03
     10.092  0.6296E-15  0.5322E+03
     10.269  0.0000E+00  0.5352E+03
     10.445  0.0000E+00  0.5360E+03
     10.621  0.0000E+00  0.5360E+03
     10.798  0.0000E+00  0.5360E+03
     10.974  0.0000E+00  0.5360E+03
     11.150  0.0000E+00  0.5360E+03
     11.327  0.0000E+00  0.5360E+03
     11.503  0.0000E+00  0.5360E+03
     11.679  0.0000E+00  0.5360E+03
     11.856  0.0000E+00  0.5360E+03
     12.032  0.0000E+00  0.5360E+03
     12.208  0.0000E+00  0.5360E+03
     12.385  0.0000E+00  0.5360E+03
     12.561  0.0000E+00  0.5360E+03
     12.737  0.0000E+00  0.5360E+03
