 vasp.5.3.5 31Mar14 (build Nov 07 2014 11:36:17) complex                        
  
 executed on             LinuxIFC date 2015.10.15  02:20:40
 running on   20 total cores
 distrk:  each k-point on   20 cores,    1 groups
 distr:  one band on NCORES_PER_BAND=   5 cores,    4 groups


--------------------------------------------------------------------------------------------------------


 INCAR:
 POTCAR:    PAW_PBE Mg_pv 13Apr2007               
 POTCAR:    PAW_PBE S 06Sep2000                   
 POTCAR:    PAW_PBE Mg_pv 13Apr2007               
   VRHFIN =Mg: p6s2                                                             
   LEXCH  = PE                                                                  
   EATOM  =  1056.7344 eV,   77.6678 Ry                                         
                                                                                
   TITEL  = PAW_PBE Mg_pv 13Apr2007                                             
   LULTRA =        F    use ultrasoft PP ?                                      
   IUNSCR =        1    unscreen: 0-lin 1-nonlin 2-no                           
   RPACOR =    1.500    partial core radius                                     
   POMASS =   24.305; ZVAL   =    8.000    mass and valenz                      
   RCORE  =    2.000    outmost cutoff radius                                   
   RWIGS  =    2.000; RWIGS  =    1.058    wigner-seitz radius (au A)           
   ENMAX  =  403.929; ENMIN  =  302.947 eV                                      
   RCLOC  =    1.506    cutoff for local pot                                    
   LCOR   =        T    correct aug charges                                     
   LPAW   =        T    paw PP                                                  
   EAUG   =  758.780                                                            
   DEXC   =    0.000                                                            
   RMAX   =    2.045    core radius for proj-oper                               
   RAUG   =    1.300    factor for augmentation sphere                          
   RDEP   =    2.025    radius for radial grids                                 
   RDEPT  =    1.557    core radius for aug-charge                              
                                                                                
   Atomic configuration                                                         
    5 entries                                                                   
     n  l   j            E        occ.                                          
     1  0  0.50     -1259.6230   2.0000                                         
     2  0  0.50       -79.8442   2.0000                                         
     2  1  1.50       -46.6121   6.0000                                         
     3  0  0.50        -4.7055   2.0000                                         
     3  2  1.50        -1.3606   0.0000                                         
   Description                                                                  
     l       E           TYP  RCUT    TYP  RCUT                                 
     1    -46.6121073     23  1.600                                             
     1      2.7211652     23  1.600                                             
     0     -4.7054661     23  2.000                                             
     0     61.2262170     23  2.000                                             
     2     -1.3605826     23  2.000                                             
  local pseudopotential read in
  partial core-charges read in
  partial kinetic energy density read in
  atomic valenz-charges read in
  non local Contribution for L=           1  read in
    real space projection operators read in
  non local Contribution for L=           1  read in
    real space projection operators read in
  non local Contribution for L=           0  read in
    real space projection operators read in
  non local Contribution for L=           0  read in
    real space projection operators read in
  non local Contribution for L=           2  read in
    real space projection operators read in
    PAW grid and wavefunctions read in
 
   number of l-projection  operators is LMAX  =           5
   number of lm-projection operators is LMMAX =          13
 
 POTCAR:    PAW_PBE S 06Sep2000                   
   VRHFIN =S : s2p4                                                             
   LEXCH  = PE                                                                  
   EATOM  =   276.8230 eV,   20.3459 Ry                                         
                                                                                
   TITEL  = PAW_PBE S 06Sep2000                                                 
   LULTRA =        F    use ultrasoft PP ?                                      
   IUNSCR =        1    unscreen: 0-lin 1-nonlin 2-no                           
   RPACOR =    1.500    partial core radius                                     
   POMASS =   32.066; ZVAL   =    6.000    mass and valenz                      
   RCORE  =    1.900    outmost cutoff radius                                   
   RWIGS  =    2.200; RWIGS  =    1.164    wigner-seitz radius (au A)           
   ENMAX  =  258.689; ENMIN  =  194.016 eV                                      
   ICORE  =        2    local potential                                         
   LCOR   =        T    correct aug charges                                     
   LPAW   =        T    paw PP                                                  
   EAUG   =  335.092                                                            
   DEXC   =    0.000                                                            
   RMAX   =    1.942    core radius for proj-oper                               
   RAUG   =    1.300    factor for augmentation sphere                          
   RDEP   =    1.954    radius for radial grids                                 
   RDEPT  =    1.744    core radius for aug-charge                              
                                                                                
   Atomic configuration                                                         
    6 entries                                                                   
     n  l   j            E        occ.                                          
     1  0  0.50     -2405.8406   2.0000                                         
     2  0  0.50      -211.7007   2.0000                                         
     2  1  1.50      -156.4958   6.0000                                         
     3  0  0.50       -17.2562   2.0000                                         
     3  1  0.50        -7.0085   4.0000                                         
     3  2  1.50        -6.8029   0.0000                                         
   Description                                                                  
     l       E           TYP  RCUT    TYP  RCUT                                 
     0    -17.2561641     23  1.900                                             
     0    -15.8743224     23  1.900                                             
     1     -7.0085400     23  1.900                                             
     1     -2.7779785     23  1.900                                             
     2     -6.8029130     23  1.900                                             
  local pseudopotential read in
  partial core-charges read in
  partial kinetic energy density read in
  atomic valenz-charges read in
  non local Contribution for L=           0  read in
    real space projection operators read in
  non local Contribution for L=           0  read in
    real space projection operators read in
  non local Contribution for L=           1  read in
    real space projection operators read in
  non local Contribution for L=           1  read in
    real space projection operators read in
    PAW grid and wavefunctions read in
 
   number of l-projection  operators is LMAX  =           4
   number of lm-projection operators is LMMAX =           8
 

 ----------------------------------------------------------------------------- 
|                                                                             |
|  ADVICE TO THIS USER RUNNING 'VASP/VAMP'   (HEAR YOUR MASTER'S VOICE ...):  |
|                                                                             |
|      You have a (more or less) 'large supercell' and for larger cells       |
|      it might be more efficient to use real space projection opertators     |
|      So try LREAL= Auto  in the INCAR   file.                               |
|      Mind: At the moment your POTCAR file does not contain real space       |
|       projectors, and has to be modified,  BUT if you                       |
|      want to do an extremely  accurate calculation you might also keep the  |
|      reciprocal projection scheme          (i.e. LREAL=.FALSE.)             |
|                                                                             |
 ----------------------------------------------------------------------------- 


 ----------------------------------------------------------------------------- 
|                                                                             |
|  ADVICE TO THIS USER RUNNING 'VASP/VAMP'   (HEAR YOUR MASTER'S VOICE ...):  |
|                                                                             |
|      You enforced a specific xc-type in the INCAR file,                     |
|      a different type was found on the POTCAR file                          |
|          I HOPE YOU KNOW, WHAT YOU ARE  DOING                               |
|                                                                             |
 ----------------------------------------------------------------------------- 

  PAW_PBE Mg_pv 13Apr2007               :
 energy of atom  1       EATOM=-1056.7344
 kinetic energy error for atom=    0.0336 (will be added to EATOM!!)
  PAW_PBE S 06Sep2000                   :
 energy of atom  2       EATOM= -276.8230
 kinetic energy error for atom=    0.0015 (will be added to EATOM!!)
 
 
 POSCAR:  Mg S                                   
  positions in direct lattice
  No initial velocities read in
 exchange correlation table for  LEXCH =       14
   RHO(1)=    0.500       N(1)  =     2000
   RHO(2)=  100.500       N(2)  =     4000
 


--------------------------------------------------------------------------------------------------------


 ion  position               nearest neighbor table
   1  0.000  0.000  0.000-  34 2.60  49 2.60  53 2.60  57 2.60  59 2.60  33 2.61
   2  0.500  0.000  0.000-  33 2.59  34 2.60  50 2.60  54 2.60  58 2.60  60 2.60
   3  0.000  0.500  0.000-  35 2.60  36 2.60  51 2.60  55 2.60  57 2.60  59 2.60
   4  0.500  0.500  0.000-  35 2.60  36 2.60  52 2.60  56 2.60  58 2.60  60 2.60
   5  0.000  0.000  0.500-  37 2.60  38 2.60  49 2.60  53 2.60  61 2.60  63 2.60
   6  0.500  0.000  0.500-  37 2.60  38 2.60  50 2.60  54 2.60  62 2.60  64 2.60
   7  0.000  0.500  0.500-  39 2.60  40 2.60  51 2.60  55 2.60  61 2.60  63 2.60
   8  0.500  0.500  0.500-  39 2.60  40 2.60  52 2.60  56 2.60  62 2.60  64 2.60
   9  0.000  0.250  0.250-  41 2.60  42 2.60  49 2.60  51 2.60  57 2.60  61 2.60
  10  0.500  0.250  0.250-  41 2.60  42 2.60  50 2.60  52 2.60  58 2.60  62 2.60
  11  0.000  0.750  0.250-  43 2.60  44 2.60  49 2.60  51 2.60  59 2.60  63 2.60
  12  0.500  0.750  0.250-  43 2.60  44 2.60  50 2.60  52 2.60  60 2.60  64 2.60
  13  0.000  0.250  0.750-  45 2.60  46 2.60  53 2.60  55 2.60  57 2.60  61 2.60
  14  0.500  0.250  0.750-  45 2.60  46 2.60  54 2.60  56 2.60  58 2.60  62 2.60
  15  0.000  0.750  0.750-  47 2.60  48 2.60  53 2.60  55 2.60  59 2.60  63 2.60
  16  0.500  0.750  0.750-  47 2.60  48 2.60  54 2.60  56 2.60  60 2.60  64 2.60
  17  0.250  0.000  0.250-  37 2.60  41 2.60  43 2.60  49 2.60  50 2.60  33 2.60
  18  0.750  0.000  0.250-  34 2.60  38 2.60  42 2.60  44 2.60  49 2.60  50 2.60
  19  0.250  0.500  0.250-  35 2.60  39 2.60  41 2.60  43 2.60  51 2.60  52 2.60
  20  0.750  0.500  0.250-  36 2.60  40 2.60  42 2.60  44 2.60  51 2.60  52 2.60
  21  0.250  0.000  0.750-  37 2.60  45 2.60  47 2.60  53 2.60  54 2.60  33 2.60
  22  0.750  0.000  0.750-  34 2.60  38 2.60  46 2.60  48 2.60  53 2.60  54 2.60
  23  0.250  0.500  0.750-  35 2.60  39 2.60  45 2.60  47 2.60  55 2.60  56 2.60
  24  0.750  0.500  0.750-  36 2.60  40 2.60  46 2.60  48 2.60  55 2.60  56 2.60
  25  0.250  0.250  0.000-  35 2.60  41 2.60  45 2.60  57 2.60  58 2.60  33 2.60
  26  0.750  0.250  0.000-  34 2.60  36 2.60  42 2.60  46 2.60  57 2.60  58 2.60
  27  0.250  0.750  0.000-  35 2.60  43 2.60  47 2.60  59 2.60  60 2.60  33 2.60
  28  0.750  0.750  0.000-  34 2.60  36 2.60  44 2.60  48 2.60  59 2.60  60 2.60
  29  0.250  0.250  0.500-  37 2.60  39 2.60  41 2.60  45 2.60  61 2.60  62 2.60
  30  0.750  0.250  0.500-  38 2.60  40 2.60  42 2.60  46 2.60  61 2.60  62 2.60
  31  0.250  0.750  0.500-  37 2.60  39 2.60  43 2.60  47 2.60  63 2.60  64 2.60
  32  0.750  0.750  0.500-  38 2.60  40 2.60  44 2.60  48 2.60  63 2.60  64 2.60
  33  0.251  0.000  0.000-   2 2.59  17 2.60  21 2.60  25 2.60  27 2.60   1 2.61
  34  0.750  0.000  0.000-   1 2.60   2 2.60  18 2.60  22 2.60  26 2.60  28 2.60
  35  0.250  0.500  0.000-   3 2.60   4 2.60  19 2.60  23 2.60  25 2.60  27 2.60
  36  0.750  0.500  0.000-   3 2.60   4 2.60  20 2.60  24 2.60  26 2.60  28 2.60
  37  0.250  0.000  0.500-   5 2.60   6 2.60  17 2.60  21 2.60  29 2.60  31 2.60
  38  0.750  0.000  0.500-   5 2.60   6 2.60  18 2.60  22 2.60  30 2.60  32 2.60
  39  0.250  0.500  0.500-   7 2.60   8 2.60  19 2.60  23 2.60  29 2.60  31 2.60
  40  0.750  0.500  0.500-   7 2.60   8 2.60  20 2.60  24 2.60  30 2.60  32 2.60
  41  0.250  0.250  0.250-   9 2.60  10 2.60  17 2.60  19 2.60  25 2.60  29 2.60
  42  0.750  0.250  0.250-   9 2.60  10 2.60  18 2.60  20 2.60  26 2.60  30 2.60
  43  0.250  0.750  0.250-  11 2.60  12 2.60  17 2.60  19 2.60  27 2.60  31 2.60
  44  0.750  0.750  0.250-  11 2.60  12 2.60  18 2.60  20 2.60  28 2.60  32 2.60
  45  0.250  0.250  0.750-  13 2.60  14 2.60  21 2.60  23 2.60  25 2.60  29 2.60
  46  0.750  0.250  0.750-  13 2.60  14 2.60  22 2.60  24 2.60  26 2.60  30 2.60
  47  0.250  0.750  0.750-  15 2.60  16 2.60  21 2.60  23 2.60  27 2.60  31 2.60
  48  0.750  0.750  0.750-  15 2.60  16 2.60  22 2.60  24 2.60  28 2.60  32 2.60
  49  0.000  0.000  0.250-   1 2.60   5 2.60   9 2.60  11 2.60  17 2.60  18 2.60
  50  0.500  0.000  0.250-   2 2.60   6 2.60  10 2.60  12 2.60  17 2.60  18 2.60
  51  0.000  0.500  0.250-   3 2.60   7 2.60   9 2.60  11 2.60  19 2.60  20 2.60
  52  0.500  0.500  0.250-   4 2.60   8 2.60  10 2.60  12 2.60  19 2.60  20 2.60
  53  0.000  0.000  0.750-   1 2.60   5 2.60  13 2.60  15 2.60  21 2.60  22 2.60
  54  0.500  0.000  0.750-   2 2.60   6 2.60  14 2.60  16 2.60  21 2.60  22 2.60
  55  0.000  0.500  0.750-   3 2.60   7 2.60  13 2.60  15 2.60  23 2.60  24 2.60
  56  0.500  0.500  0.750-   4 2.60   8 2.60  14 2.60  16 2.60  23 2.60  24 2.60
  57  0.000  0.250  0.000-   1 2.60   3 2.60   9 2.60  13 2.60  25 2.60  26 2.60
  58  0.500  0.250  0.000-   2 2.60   4 2.60  10 2.60  14 2.60  25 2.60  26 2.60
  59  0.000  0.750  0.000-   1 2.60   3 2.60  11 2.60  15 2.60  27 2.60  28 2.60
  60  0.500  0.750  0.000-   2 2.60   4 2.60  12 2.60  16 2.60  27 2.60  28 2.60
  61  0.000  0.250  0.500-   5 2.60   7 2.60   9 2.60  13 2.60  29 2.60  30 2.60
  62  0.500  0.250  0.500-   6 2.60   8 2.60  10 2.60  14 2.60  29 2.60  30 2.60
  63  0.000  0.750  0.500-   5 2.60   7 2.60  11 2.60  15 2.60  31 2.60  32 2.60
  64  0.500  0.750  0.500-   6 2.60   8 2.60  12 2.60  16 2.60  31 2.60  32 2.60
 
  LATTYP: Found a simple cubic cell.
 ALAT       =    10.3963709800
  
  Lattice vectors:
  
 A1 = (  10.3963709800,   0.0000000000,   0.0000000000)
 A2 = (   0.0000000000,  10.3963709800,   0.0000000000)
 A3 = (   0.0000000000,   0.0000000000,  10.3963709800)


Analysis of symmetry for initial positions (statically):
=====================================================================
 Subroutine PRICEL returns:
 Original cell was already a primitive cell.
 

 Routine SETGRP: Setting up the symmetry group for a 
 simple cubic supercell.


 Subroutine GETGRP returns: Found  8 space group operations
 (whereof  8 operations were pure point group operations)
 out of a pool of 48 trial point group operations.


The static configuration has the point symmetry C_4v.


Analysis of symmetry for dynamics (positions and initial velocities):
=====================================================================
 Subroutine PRICEL returns:
 Original cell was already a primitive cell.
 

 Routine SETGRP: Setting up the symmetry group for a 
 simple cubic supercell.


 Subroutine GETGRP returns: Found  8 space group operations
 (whereof  8 operations were pure point group operations)
 out of a pool of 48 trial point group operations.


The dynamic configuration has the point symmetry C_4v.
 
 
 KPOINTS: Automatic mesh                          

Automatic generation of k-mesh.
Space group operators:
 irot       det(A)        alpha          n_x          n_y          n_z        tau_x        tau_y        tau_z
    1     1.000000     0.000000     1.000000     0.000000     0.000000     0.000000     0.000000     0.000000
    2    -1.000000   180.000000     0.000000     0.707107     0.707107     0.000000     0.000000     0.000000
    3    -1.000000   179.999999     0.000000     0.000000     1.000000     0.000000     0.000000     0.000000
    4     1.000000    90.000000    -1.000000     0.000000     0.000000     0.000000     0.000000     0.000000
    5     1.000000   180.000000     1.000000     0.000000     0.000000     0.000000     0.000000     0.000000
    6     1.000000    90.000000     1.000000     0.000000     0.000000     0.000000     0.000000     0.000000
    7    -1.000000   180.000000     0.000000     1.000000     0.000000     0.000000     0.000000     0.000000
    8    -1.000000   180.000000     0.000000    -0.707107     0.707107     0.000000     0.000000     0.000000
 
 Subroutine IBZKPT returns following result:
 ===========================================
 
 Found      6 irreducible k-points:
 
 Following reciprocal coordinates:
            Coordinates               Weight
  0.000000  0.000000  0.000000      1.000000
  0.500000  0.000000  0.000000      1.000000
  0.000000  0.500000  0.000000      2.000000
  0.500000  0.500000  0.000000      2.000000
  0.000000  0.500000  0.500000      1.000000
  0.500000  0.500000  0.500000      1.000000
 
 Following cartesian coordinates:
            Coordinates               Weight
  0.000000  0.000000  0.000000      1.000000
  0.048094  0.000000  0.000000      1.000000
  0.000000  0.048094  0.000000      2.000000
  0.048094  0.048094  0.000000      2.000000
  0.000000  0.048094  0.048094      1.000000
  0.048094  0.048094  0.048094      1.000000
 


--------------------------------------------------------------------------------------------------------




 Dimension of arrays:
   k-points           NKPTS =      6   k-points in BZ     NKDIM =      6   number of bands    NBANDS=    268
   number of dos      NEDOS =    301   number of ions     NIONS =     64
   non local maximal  LDIM  =      5   non local SUM 2l+1 LMDIM =     13
   total plane-waves  NPLWV = 512000
   max r-space proj   IRMAX =      1   max aug-charges    IRDMAX= 115026
   dimension x,y,z NGX =    80 NGY =   80 NGZ =   80
   dimension x,y,z NGXF=   160 NGYF=  160 NGZF=  160
   support grid    NGXF=   320 NGYF=  320 NGZF=  320
   ions per type =              32  32
 NGX,Y,Z   is equivalent  to a cutoff of  12.79, 12.79, 12.79 a.u.
 NGXF,Y,Z  is equivalent  to a cutoff of  25.59, 25.59, 25.59 a.u.


 I would recommend the setting:
   dimension x,y,z NGX =    78 NGY =   78 NGZ =   78
 SYSTEM =  unknown system                          
 POSCAR =   Mg S                                   

 Startparameter for this run:
   NWRITE =      2    write-flag & timer
   PREC   = accura    normal or accurate (medium, high low for compatibility)
   ISTART =      0    job   : 0-new  1-cont  2-samecut
   ICHARG =      2    charge: 1-file 2-atom 10-const
   ISPIN  =      1    spin polarized calculation?
   LNONCOLLINEAR =      F non collinear calculations
   LSORBIT =      F    spin-orbit coupling
   INIWAV =      1    electr: 0-lowe 1-rand  2-diag
   LASPH  =      F    aspherical Exc in radial PAW
   METAGGA=      F    non-selfconsistent MetaGGA calc.

 Electronic Relaxation 1
   ENCUT  =  525.1 eV  38.59 Ry    6.21 a.u.  19.43 19.43 19.43*2*pi/ulx,y,z
   ENINI  =  525.1     initial cutoff
   ENAUG  =  758.8 eV  augmentation charge cutoff
   NELM   =     60;   NELMIN=  5; NELMDL= -5     # of ELM steps 
   EDIFF  = 0.1E-07   stopping-criterion for ELM
   LREAL  =      F    real-space projection
   NLSPLINE    = F    spline interpolate recip. space projectors
   LCOMPAT=      F    compatible to vasp.4.4
   GGA_COMPAT  = T    GGA compatible to vasp.4.4-vasp.4.6
   LMAXPAW     = -100 max onsite density
   LMAXMIX     =    2 max onsite mixed and CHGCAR
   VOSKOWN=      0    Vosko Wilk Nusair interpolation
   ROPT   =    0.00000   0.00000
 Ionic relaxation
   EDIFFG = 0.1E-06   stopping-criterion for IOM
   NSW    =      0    number of steps for IOM
   NBLOCK =      1;   KBLOCK =      1    inner block; outer block 
   IBRION =     -1    ionic relax: 0-MD 1-quasi-New 2-CG
   NFREE  =      0    steps in history (QN), initial steepest desc. (CG)
   ISIF   =      2    stress and relaxation
   IWAVPR =     10    prediction:  0-non 1-charg 2-wave 3-comb
   ISYM   =      2    0-nonsym 1-usesym 2-fastsym
   LCORR  =      T    Harris-Foulkes like correction to forces

   POTIM  = 0.5000    time-step for ionic-motion
   TEIN   =    0.0    initial temperature
   TEBEG  =    0.0;   TEEND  =   0.0 temperature during run
   SMASS  =  -3.00    Nose mass-parameter (am)
   estimated Nose-frequenzy (Omega)   =  0.10E-29 period in steps =****** mass=  -0.247E-26a.u.
   SCALEE = 1.0000    scale energy and forces
   NPACO  =    256;   APACO  = 16.0  distance and # of slots for P.C.
   PSTRESS=    0.0 pullay stress

  Mass of Ions in am
   POMASS =  24.30 32.07
  Ionic Valenz
   ZVAL   =   8.00  6.00
  Atomic Wigner-Seitz radii
   RWIGS  =  -1.00 -1.00
  virtual crystal weights 
   VCA    =   1.00  1.00
   NELECT =     448.0000    total number of electrons
   NUPDOWN=      -1.0000    fix difference up-down

 DOS related values:
   EMIN   =  10.00;   EMAX   =-10.00  energy-range for DOS
   EFERMI =   0.00
   ISMEAR =     0;   SIGMA  =   0.01  broadening in eV -4-tet -1-fermi 0-gaus

 Electronic relaxation 2 (details)
   IALGO  =     38    algorithm
   LDIAG  =      T    sub-space diagonalisation (order eigenvalues)
   LSUBROT=      F    optimize rotation matrix (better conditioning)
   TURBO    =      0    0=normal 1=particle mesh
   IRESTART =      0    0=no restart 2=restart with 2 vectors
   NREBOOT  =      0    no. of reboots
   NMIN     =      0    reboot dimension
   EREF     =   0.00    reference energy to select bands
   IMIX   =      4    mixing-type and parameters
     AMIX     =   0.40;   BMIX     =  1.00
     AMIX_MAG =   1.60;   BMIX_MAG =  1.00
     AMIN     =   0.10
     WC   =   100.;   INIMIX=   1;  MIXPRE=   1;  MAXMIX= -45

 Intra band minimization:
   WEIMIN = 0.0000     energy-eigenvalue tresh-hold
   EBREAK =  0.93E-11  absolut break condition
   DEPER  =   0.30     relativ break condition  

   TIME   =   0.40     timestep for ELM

  volume/ion in A,a.u.               =      17.56       118.48
  Fermi-wavevector in a.u.,A,eV,Ry     =   1.204904  2.276938 19.752848  1.451793
  Thomas-Fermi vector in A             =   2.340616
 
 Write flags
   LWAVE  =      F    write WAVECAR
   LCHARG =      F    write CHGCAR
   LVTOT  =      F    write LOCPOT, total local potential
   LVHAR  =      F    write LOCPOT, Hartree potential only
   LELF   =      F    write electronic localiz. function (ELF)
   LORBIT =      0    0 simple, 1 ext, 2 COOP (PROOUT)


 Dipole corrections
   LMONO  =      F    monopole corrections only (constant potential shift)
   LDIPOL =      F    correct potential (dipole corrections)
   IDIPOL =      0    1-x, 2-y, 3-z, 4-all directions 
   EPSILON=  1.0000000 bulk dielectric constant

 Exchange correlation treatment:
   GGA     =    PS    GGA type
   LEXCH   =    14    internal setting for exchange type
   VOSKOWN=      0    Vosko Wilk Nusair interpolation
   LHFCALC =     F    Hartree Fock is set to
   LHFONE  =     F    Hartree Fock one center treatment
   AEXX    =    0.0000 exact exchange contribution

 Linear response parameters
   LEPSILON=     F    determine dielectric tensor
   LRPA    =     F    only Hartree local field effects (RPA)
   LNABLA  =     F    use nabla operator in PAW spheres
   LVEL    =     F    velocity operator in full k-point grid
   LINTERFAST=   F  fast interpolation
   KINTER  =     0    interpolate to denser k-point grid
   CSHIFT  =0.1000    complex shift for real part using Kramers Kronig
   OMEGAMAX=  -1.0    maximum frequency
   DEG_THRESHOLD= 0.2000000E-02 threshold for treating states as degnerate
   RTIME   =    0.100 relaxation time in fs

 Orbital magnetization related:
   ORBITALMAG=     F  switch on orbital magnetization
   LCHIMAG   =     F  perturbation theory with respect to B field
   DQ        =  0.001000  dq finite difference perturbation B field



--------------------------------------------------------------------------------------------------------


 Static calculation
 charge density and potential will be updated during run
 non-spin polarized calculation
 Variant of blocked Davidson
 Davidson routine will perform the subspace rotation
 perform sub-space diagonalisation
    after iterative eigenvector-optimisation
 modified Broyden-mixing scheme, WC =      100.0
 initial mixing is a Kerker type mixing with AMIX =  0.4000 and BMIX =      1.0000
 Hartree-type preconditioning will be used
 using additional bands           44
 reciprocal scheme for non local part
 use partial core corrections
 calculate Harris-corrections to forces 
   (improved forces if not selfconsistent)
 use gradient corrections 
 use of overlap-Matrix (Vanderbilt PP)
 Gauss-broadening in eV      SIGMA  =   0.01


--------------------------------------------------------------------------------------------------------


  energy-cutoff  :      525.11
  volume of cell :     1123.69
      direct lattice vectors                 reciprocal lattice vectors
    10.396370980  0.000000000  0.000000000     0.096187410  0.000000000  0.000000000
     0.000000000 10.396370980  0.000000000     0.000000000  0.096187410  0.000000000
     0.000000000  0.000000000 10.396370980     0.000000000  0.000000000  0.096187410

  length of vectors
    10.396370980 10.396370980 10.396370980     0.096187410  0.096187410  0.096187410


 
 k-points in units of 2pi/SCALE and weight: Automatic mesh                          
   0.00000000  0.00000000  0.00000000       0.125
   0.04809371  0.00000000  0.00000000       0.125
   0.00000000  0.04809371  0.00000000       0.250
   0.04809371  0.04809371  0.00000000       0.250
   0.00000000  0.04809371  0.04809371       0.125
   0.04809371  0.04809371  0.04809371       0.125
 
 k-points in reciprocal lattice and weights: Automatic mesh                          
   0.00000000  0.00000000  0.00000000       0.125
   0.50000000  0.00000000  0.00000000       0.125
   0.00000000  0.50000000  0.00000000       0.250
   0.50000000  0.50000000  0.00000000       0.250
   0.00000000  0.50000000  0.50000000       0.125
   0.50000000  0.50000000  0.50000000       0.125
 
 position of ions in fractional coordinates (direct lattice) 
   0.00000000  0.00000000  0.00000000
   0.50000000  0.00000000  0.00000000
   0.00000000  0.50000000  0.00000000
   0.50000000  0.50000000  0.00000000
   0.00000000  0.00000000  0.50000000
   0.50000000  0.00000000  0.50000000
   0.00000000  0.50000000  0.50000000
   0.50000000  0.50000000  0.50000000
   0.00000000  0.25000000  0.25000000
   0.50000000  0.25000000  0.25000000
   0.00000000  0.75000000  0.25000000
   0.50000000  0.75000000  0.25000000
   0.00000000  0.25000000  0.75000000
   0.50000000  0.25000000  0.75000000
   0.00000000  0.75000000  0.75000000
   0.50000000  0.75000000  0.75000000
   0.25000000  0.00000000  0.25000000
   0.75000000  0.00000000  0.25000000
   0.25000000  0.50000000  0.25000000
   0.75000000  0.50000000  0.25000000
   0.25000000  0.00000000  0.75000000
   0.75000000  0.00000000  0.75000000
   0.25000000  0.50000000  0.75000000
   0.75000000  0.50000000  0.75000000
   0.25000000  0.25000000  0.00000000
   0.75000000  0.25000000  0.00000000
   0.25000000  0.75000000  0.00000000
   0.75000000  0.75000000  0.00000000
   0.25000000  0.25000000  0.50000000
   0.75000000  0.25000000  0.50000000
   0.25000000  0.75000000  0.50000000
   0.75000000  0.75000000  0.50000000
   0.25096187  0.00000000  0.00000000
   0.75000000  0.00000000  0.00000000
   0.25000000  0.50000000  0.00000000
   0.75000000  0.50000000  0.00000000
   0.25000000  0.00000000  0.50000000
   0.75000000  0.00000000  0.50000000
   0.25000000  0.50000000  0.50000000
   0.75000000  0.50000000  0.50000000
   0.25000000  0.25000000  0.25000000
   0.75000000  0.25000000  0.25000000
   0.25000000  0.75000000  0.25000000
   0.75000000  0.75000000  0.25000000
   0.25000000  0.25000000  0.75000000
   0.75000000  0.25000000  0.75000000
   0.25000000  0.75000000  0.75000000
   0.75000000  0.75000000  0.75000000
   0.00000000  0.00000000  0.25000000
   0.50000000  0.00000000  0.25000000
   0.00000000  0.50000000  0.25000000
   0.50000000  0.50000000  0.25000000
   0.00000000  0.00000000  0.75000000
   0.50000000  0.00000000  0.75000000
   0.00000000  0.50000000  0.75000000
   0.50000000  0.50000000  0.75000000
   0.00000000  0.25000000  0.00000000
   0.50000000  0.25000000  0.00000000
   0.00000000  0.75000000  0.00000000
   0.50000000  0.75000000  0.00000000
   0.00000000  0.25000000  0.50000000
   0.50000000  0.25000000  0.50000000
   0.00000000  0.75000000  0.50000000
   0.50000000  0.75000000  0.50000000
 
 position of ions in cartesian coordinates  (Angst):
   0.00000000  0.00000000  0.00000000
   5.19818549  0.00000000  0.00000000
   0.00000000  5.19818549  0.00000000
   5.19818549  5.19818549  0.00000000
   0.00000000  0.00000000  5.19818549
   5.19818549  0.00000000  5.19818549
   0.00000000  5.19818549  5.19818549
   5.19818549  5.19818549  5.19818549
   0.00000000  2.59909275  2.59909275
   5.19818549  2.59909275  2.59909275
   0.00000000  7.79727824  2.59909275
   5.19818549  7.79727824  2.59909275
   0.00000000  2.59909275  7.79727824
   5.19818549  2.59909275  7.79727824
   0.00000000  7.79727824  7.79727824
   5.19818549  7.79727824  7.79727824
   2.59909275  0.00000000  2.59909275
   7.79727824  0.00000000  2.59909275
   2.59909275  5.19818549  2.59909275
   7.79727824  5.19818549  2.59909275
   2.59909275  0.00000000  7.79727824
   7.79727824  0.00000000  7.79727824
   2.59909275  5.19818549  7.79727824
   7.79727824  5.19818549  7.79727824
   2.59909275  2.59909275  0.00000000
   7.79727824  2.59909275  0.00000000
   2.59909275  7.79727824  0.00000000
   7.79727824  7.79727824  0.00000000
   2.59909275  2.59909275  5.19818549
   7.79727824  2.59909275  5.19818549
   2.59909275  7.79727824  5.19818549
   7.79727824  7.79727824  5.19818549
   2.60909274  0.00000000  0.00000000
   7.79727824  0.00000000  0.00000000
   2.59909275  5.19818549  0.00000000
   7.79727824  5.19818549  0.00000000
   2.59909275  0.00000000  5.19818549
   7.79727824  0.00000000  5.19818549
   2.59909275  5.19818549  5.19818549
   7.79727824  5.19818549  5.19818549
   2.59909275  2.59909275  2.59909275
   7.79727824  2.59909275  2.59909275
   2.59909275  7.79727824  2.59909275
   7.79727824  7.79727824  2.59909275
   2.59909275  2.59909275  7.79727824
   7.79727824  2.59909275  7.79727824
   2.59909275  7.79727824  7.79727824
   7.79727824  7.79727824  7.79727824
   0.00000000  0.00000000  2.59909275
   5.19818549  0.00000000  2.59909275
   0.00000000  5.19818549  2.59909275
   5.19818549  5.19818549  2.59909275
   0.00000000  0.00000000  7.79727824
   5.19818549  0.00000000  7.79727824
   0.00000000  5.19818549  7.79727824
   5.19818549  5.19818549  7.79727824
   0.00000000  2.59909275  0.00000000
   5.19818549  2.59909275  0.00000000
   0.00000000  7.79727824  0.00000000
   5.19818549  7.79727824  0.00000000
   0.00000000  2.59909275  5.19818549
   5.19818549  2.59909275  5.19818549
   0.00000000  7.79727824  5.19818549
   5.19818549  7.79727824  5.19818549
 


--------------------------------------------------------------------------------------------------------


 k-point  1 :   0.0000 0.0000 0.0000  plane waves:   30839
 k-point  2 :   0.5000 0.0000 0.0000  plane waves:   30750
 k-point  3 :   0.0000 0.5000 0.0000  plane waves:   30750
 k-point  4 :   0.5000 0.5000 0.0000  plane waves:   30624
 k-point  5 :   0.0000 0.5000 0.5000  plane waves:   30624
 k-point  6 :   0.5000 0.5000 0.5000  plane waves:   30688

 maximum and minimum number of plane-waves per node :      6195     6093

 maximum number of plane-waves:     30839
 maximum index in each direction: 
   IXMAX=   19   IYMAX=   19   IZMAX=   19
   IXMIN=  -19   IYMIN=  -19   IZMIN=  -19

 NGX is ok and might be reduce to  78
 NGY is ok and might be reduce to  78
 NGZ is ok and might be reduce to  78

 parallel 3D FFT for wavefunctions:
    minimum data exchange during FFTs selected (reduces bandwidth)
 parallel 3D FFT for charge:
    minimum data exchange during FFTs selected (reduces bandwidth)


 total amount of memory used by VASP on root node   133490. kBytes
========================================================================

   base      :      30000. kBytes
   nonl-proj :      14031. kBytes
   fftplans  :      33043. kBytes
   grid      :      15687. kBytes
   one-center:        105. kBytes
   wavefun   :      40624. kBytes
 
     INWAV:  cpu time    0.00: real time    0.00
 Broyden mixing: mesh for mixing (old mesh)
   NGX = 39   NGY = 39   NGZ = 39
  (NGX  =160   NGY  =160   NGZ  =160)
  gives a total of  59319 points

 initial charge density was supplied:
 charge density of overlapping atoms calculated
 number of electron     448.0000000 magnetization 
 keeping initial charge density in first step


--------------------------------------------------------------------------------------------------------


 Maximum index for augmentation-charges         5899 (set IRDMAX)


--------------------------------------------------------------------------------------------------------


 First call to EWALD:  gamma=   0.170
 Maximum number of real-space cells 3x 3x 3
 Maximum number of reciprocal cells 3x 3x 3

 FEWALD executed in parallel
    FEWALD:  cpu time    0.00: real time    0.00


----------------------------------------- Iteration    1(   1)  ---------------------------------------


    POTLOK:  cpu time    0.17: real time    0.18
    SETDIJ:  cpu time    0.21: real time    0.21
     EDDAV:  cpu time   24.71: real time   24.71
       DOS:  cpu time    0.00: real time    0.00
    --------------------------------------------
      LOOP:  cpu time   25.09: real time   25.11

 eigenvalue-minimisations  :  3888
 total energy-change (2. order) : 0.4286548E+04  (-0.2666743E+05)
 number of electron     448.0000000 magnetization 
 augmentation part      448.0000000 magnetization 

 Free energy of the ion-electron system (eV)
  ---------------------------------------------------
  alpha Z        PSCENC =      1209.31185597
  Ewald energy   TEWEN  =    -24958.02384207
  -Hartree energ DENC   =     -9350.32807472
  -exchange      EXHF   =         0.00000000
  -V(xc)+E(xc)   XCENC  =      1273.89882643
  PAW double counting   =     27701.73694044   -31358.41014717
  entropy T*S    EENTRO =        -0.00000540
  eigenvalues    EBANDS =     -2805.28095668
  atomic energy  EATOM  =     42573.64344421
  ---------------------------------------------------
  free energy    TOTEN  =      4286.54804102 eV

  energy without entropy =     4286.54804642  energy(sigma->0) =     4286.54804372


--------------------------------------------------------------------------------------------------------




----------------------------------------- Iteration    1(   2)  ---------------------------------------


     EDDAV:  cpu time   24.16: real time   24.16
       DOS:  cpu time    0.00: real time    0.00
    --------------------------------------------
      LOOP:  cpu time   24.16: real time   24.16

 eigenvalue-minimisations  :  3792
 total energy-change (2. order) :-0.4177881E+04  (-0.4024830E+04)
 number of electron     448.0000000 magnetization 
 augmentation part      448.0000000 magnetization 

 Free energy of the ion-electron system (eV)
  ---------------------------------------------------
  alpha Z        PSCENC =      1209.31185597
  Ewald energy   TEWEN  =    -24958.02384207
  -Hartree energ DENC   =     -9350.32807472
  -exchange      EXHF   =         0.00000000
  -V(xc)+E(xc)   XCENC  =      1273.89882643
  PAW double counting   =     27701.73694044   -31358.41014717
  entropy T*S    EENTRO =         0.00000000
  eigenvalues    EBANDS =     -6983.16183221
  atomic energy  EATOM  =     42573.64344421
  ---------------------------------------------------
  free energy    TOTEN  =       108.66717089 eV

  energy without entropy =      108.66717089  energy(sigma->0) =      108.66717089


--------------------------------------------------------------------------------------------------------




----------------------------------------- Iteration    1(   3)  ---------------------------------------


     EDDAV:  cpu time   24.77: real time   24.77
       DOS:  cpu time    0.00: real time    0.00
    --------------------------------------------
      LOOP:  cpu time   24.78: real time   24.77

 eigenvalue-minimisations  :  3904
 total energy-change (2. order) :-0.3909792E+03  (-0.3872017E+03)
 number of electron     448.0000000 magnetization 
 augmentation part      448.0000000 magnetization 

 Free energy of the ion-electron system (eV)
  ---------------------------------------------------
  alpha Z        PSCENC =      1209.31185597
  Ewald energy   TEWEN  =    -24958.02384207
  -Hartree energ DENC   =     -9350.32807472
  -exchange      EXHF   =         0.00000000
  -V(xc)+E(xc)   XCENC  =      1273.89882643
  PAW double counting   =     27701.73694044   -31358.41014717
  entropy T*S    EENTRO =         0.00000000
  eigenvalues    EBANDS =     -7374.14104643
  atomic energy  EATOM  =     42573.64344421
  ---------------------------------------------------
  free energy    TOTEN  =      -282.31204334 eV

  energy without entropy =     -282.31204334  energy(sigma->0) =     -282.31204334


--------------------------------------------------------------------------------------------------------




----------------------------------------- Iteration    1(   4)  ---------------------------------------


     EDDAV:  cpu time   23.62: real time   23.63
       DOS:  cpu time    0.00: real time    0.00
    --------------------------------------------
      LOOP:  cpu time   23.62: real time   23.64

 eigenvalue-minimisations  :  3648
 total energy-change (2. order) :-0.1861465E+02  (-0.1854997E+02)
 number of electron     448.0000000 magnetization 
 augmentation part      448.0000000 magnetization 

 Free energy of the ion-electron system (eV)
  ---------------------------------------------------
  alpha Z        PSCENC =      1209.31185597
  Ewald energy   TEWEN  =    -24958.02384207
  -Hartree energ DENC   =     -9350.32807472
  -exchange      EXHF   =         0.00000000
  -V(xc)+E(xc)   XCENC  =      1273.89882643
  PAW double counting   =     27701.73694044   -31358.41014717
  entropy T*S    EENTRO =         0.00000000
  eigenvalues    EBANDS =     -7392.75569781
  atomic energy  EATOM  =     42573.64344421
  ---------------------------------------------------
  free energy    TOTEN  =      -300.92669471 eV

  energy without entropy =     -300.92669471  energy(sigma->0) =     -300.92669471


--------------------------------------------------------------------------------------------------------




----------------------------------------- Iteration    1(   5)  ---------------------------------------


     EDDAV:  cpu time   25.36: real time   25.35
       DOS:  cpu time    0.00: real time    0.00
    CHARGE:  cpu time    1.03: real time    1.03
    MIXING:  cpu time    0.01: real time    0.01
    --------------------------------------------
      LOOP:  cpu time   26.40: real time   26.40

 eigenvalue-minimisations  :  4008
 total energy-change (2. order) :-0.8235251E+00  (-0.8229065E+00)
 number of electron     448.0000012 magnetization 
 augmentation part      105.4534185 magnetization 

 Broyden mixing:
  rms(total) = 0.24434E+01    rms(broyden)= 0.24433E+01
  rms(prec ) = 0.29216E+01
  weight for this iteration     100.00

 Free energy of the ion-electron system (eV)
  ---------------------------------------------------
  alpha Z        PSCENC =      1209.31185597
  Ewald energy   TEWEN  =    -24958.02384207
  -Hartree energ DENC   =     -9350.32807472
  -exchange      EXHF   =         0.00000000
  -V(xc)+E(xc)   XCENC  =      1273.89882643
  PAW double counting   =     27701.73694044   -31358.41014717
  entropy T*S    EENTRO =         0.00000000
  eigenvalues    EBANDS =     -7393.57922295
  atomic energy  EATOM  =     42573.64344421
  ---------------------------------------------------
  free energy    TOTEN  =      -301.75021985 eV

  energy without entropy =     -301.75021985  energy(sigma->0) =     -301.75021985


--------------------------------------------------------------------------------------------------------




----------------------------------------- Iteration    1(   6)  ---------------------------------------


    POTLOK:  cpu time    0.18: real time    0.18
    SETDIJ:  cpu time    0.21: real time    0.21
     EDDAV:  cpu time   23.18: real time   23.18
       DOS:  cpu time    0.00: real time    0.00
    CHARGE:  cpu time    1.02: real time    1.02
    MIXING:  cpu time    0.01: real time    0.01
    --------------------------------------------
      LOOP:  cpu time   24.60: real time   24.60

 eigenvalue-minimisations  :  3580
 total energy-change (2. order) : 0.1057887E+02  (-0.2140781E+01)
 number of electron     448.0000012 magnetization 
 augmentation part      106.7084888 magnetization 

 Broyden mixing:
  rms(total) = 0.17648E+01    rms(broyden)= 0.17648E+01
  rms(prec ) = 0.18800E+01
  weight for this iteration     100.00

 eigenvalues of (default mixing * dielectric matrix)
  average eigenvalue GAMMA=   2.0878
  2.0878

 Free energy of the ion-electron system (eV)
  ---------------------------------------------------
  alpha Z        PSCENC =      1209.31185597
  Ewald energy   TEWEN  =    -24958.02384207
  -Hartree energ DENC   =     -9337.80698543
  -exchange      EXHF   =         0.00000000
  -V(xc)+E(xc)   XCENC  =      1282.65919304
  PAW double counting   =     29908.54240866   -33535.98007812
  entropy T*S    EENTRO =         0.00000000
  eigenvalues    EBANDS =     -7433.51735059
  atomic energy  EATOM  =     42573.64344421
  ---------------------------------------------------
  free energy    TOTEN  =      -291.17135433 eV

  energy without entropy =     -291.17135433  energy(sigma->0) =     -291.17135433


--------------------------------------------------------------------------------------------------------




----------------------------------------- Iteration    1(   7)  ---------------------------------------


    POTLOK:  cpu time    0.17: real time    0.17
    SETDIJ:  cpu time    0.21: real time    0.21
     EDDAV:  cpu time   24.08: real time   24.08
       DOS:  cpu time    0.00: real time    0.00
    CHARGE:  cpu time    1.05: real time    1.05
    MIXING:  cpu time    0.01: real time    0.01
    --------------------------------------------
      LOOP:  cpu time   25.52: real time   25.52

 eigenvalue-minimisations  :  3744
 total energy-change (2. order) : 0.1274024E+01  (-0.7872778E+00)
 number of electron     448.0000012 magnetization 
 augmentation part      107.4668734 magnetization 

 Broyden mixing:
  rms(total) = 0.89372E+00    rms(broyden)= 0.89372E+00
  rms(prec ) = 0.91498E+00
  weight for this iteration     100.00

 eigenvalues of (default mixing * dielectric matrix)
  average eigenvalue GAMMA=   2.2020
  1.4572  2.9469

 Free energy of the ion-electron system (eV)
  ---------------------------------------------------
  alpha Z        PSCENC =      1209.31185597
  Ewald energy   TEWEN  =    -24958.02384207
  -Hartree energ DENC   =     -9309.22748196
  -exchange      EXHF   =         0.00000000
  -V(xc)+E(xc)   XCENC  =      1289.35471793
  PAW double counting   =     34233.69869224   -37849.00177241
  entropy T*S    EENTRO =         0.00000000
  eigenvalues    EBANDS =     -7479.65294446
  atomic energy  EATOM  =     42573.64344421
  ---------------------------------------------------
  free energy    TOTEN  =      -289.89733055 eV

  energy without entropy =     -289.89733055  energy(sigma->0) =     -289.89733055


--------------------------------------------------------------------------------------------------------




----------------------------------------- Iteration    1(   8)  ---------------------------------------


    POTLOK:  cpu time    0.17: real time    0.17
    SETDIJ:  cpu time    0.21: real time    0.21
     EDDAV:  cpu time   22.97: real time   22.97
       DOS:  cpu time    0.00: real time    0.00
    CHARGE:  cpu time    1.02: real time    1.02
    MIXING:  cpu time    0.01: real time    0.01
    --------------------------------------------
      LOOP:  cpu time   24.39: real time   24.39

 eigenvalue-minimisations  :  3540
 total energy-change (2. order) : 0.7630626E-01  (-0.6993092E-01)
 number of electron     448.0000012 magnetization 
 augmentation part      107.2632922 magnetization 

 Broyden mixing:
  rms(total) = 0.23969E+00    rms(broyden)= 0.23969E+00
  rms(prec ) = 0.24236E+00
  weight for this iteration     100.00

 eigenvalues of (default mixing * dielectric matrix)
  average eigenvalue GAMMA=   1.6023
  2.4884  0.9099  1.4088

 Free energy of the ion-electron system (eV)
  ---------------------------------------------------
  alpha Z        PSCENC =      1209.31185597
  Ewald energy   TEWEN  =    -24958.02384207
  -Hartree energ DENC   =     -9275.47836764
  -exchange      EXHF   =         0.00000000
  -V(xc)+E(xc)   XCENC  =      1290.20569687
  PAW double counting   =     38253.00434436   -41877.03797238
  entropy T*S    EENTRO =         0.00000000
  eigenvalues    EBANDS =     -7505.44618360
  atomic energy  EATOM  =     42573.64344421
  ---------------------------------------------------
  free energy    TOTEN  =      -289.82102429 eV

  energy without entropy =     -289.82102429  energy(sigma->0) =     -289.82102429


--------------------------------------------------------------------------------------------------------




----------------------------------------- Iteration    1(   9)  ---------------------------------------


    POTLOK:  cpu time    0.17: real time    0.17
    SETDIJ:  cpu time    0.21: real time    0.21
     EDDAV:  cpu time   23.48: real time   23.48
       DOS:  cpu time    0.00: real time    0.00
    CHARGE:  cpu time    1.03: real time    1.03
    MIXING:  cpu time    0.01: real time    0.01
    --------------------------------------------
      LOOP:  cpu time   24.90: real time   24.90

 eigenvalue-minimisations  :  3640
 total energy-change (2. order) : 0.5214564E-02  (-0.2655362E-02)
 number of electron     448.0000012 magnetization 
 augmentation part      107.2908762 magnetization 

 Broyden mixing:
  rms(total) = 0.51890E-01    rms(broyden)= 0.51890E-01
  rms(prec ) = 0.53351E-01
  weight for this iteration     100.00

 eigenvalues of (default mixing * dielectric matrix)
  average eigenvalue GAMMA=   1.8723
  2.5150  2.5150  1.0406  1.4187

 Free energy of the ion-electron system (eV)
  ---------------------------------------------------
  alpha Z        PSCENC =      1209.31185597
  Ewald energy   TEWEN  =    -24958.02384207
  -Hartree energ DENC   =     -9279.66931310
  -exchange      EXHF   =         0.00000000
  -V(xc)+E(xc)   XCENC  =      1290.06754829
  PAW double counting   =     37450.37366559   -41072.88333562
  entropy T*S    EENTRO =         0.00000000
  eigenvalues    EBANDS =     -7502.63583300
  atomic energy  EATOM  =     42573.64344421
  ---------------------------------------------------
  free energy    TOTEN  =      -289.81580973 eV

  energy without entropy =     -289.81580973  energy(sigma->0) =     -289.81580973


--------------------------------------------------------------------------------------------------------




----------------------------------------- Iteration    1(  10)  ---------------------------------------


    POTLOK:  cpu time    0.17: real time    0.17
    SETDIJ:  cpu time    0.21: real time    0.21
     EDDAV:  cpu time   23.92: real time   23.92
       DOS:  cpu time    0.00: real time    0.00
    CHARGE:  cpu time    1.03: real time    1.03
    MIXING:  cpu time    0.01: real time    0.01
    --------------------------------------------
      LOOP:  cpu time   25.35: real time   25.35

 eigenvalue-minimisations  :  3736
 total energy-change (2. order) :-0.4404396E-03  (-0.6732227E-03)
 number of electron     448.0000012 magnetization 
 augmentation part      107.3124592 magnetization 

 Broyden mixing:
  rms(total) = 0.22580E-01    rms(broyden)= 0.22580E-01
  rms(prec ) = 0.23805E-01
  weight for this iteration     100.00

 eigenvalues of (default mixing * dielectric matrix)
  average eigenvalue GAMMA=   1.6930
  2.6876  2.4735  1.2621  1.1634  0.8787

 Free energy of the ion-electron system (eV)
  ---------------------------------------------------
  alpha Z        PSCENC =      1209.31185597
  Ewald energy   TEWEN  =    -24958.02384207
  -Hartree energ DENC   =     -9277.45494963
  -exchange      EXHF   =         0.00000000
  -V(xc)+E(xc)   XCENC  =      1290.08710142
  PAW double counting   =     37145.48989190   -40768.08314710
  entropy T*S    EENTRO =         0.00000000
  eigenvalues    EBANDS =     -7504.78660486
  atomic energy  EATOM  =     42573.64344421
  ---------------------------------------------------
  free energy    TOTEN  =      -289.81625017 eV

  energy without entropy =     -289.81625017  energy(sigma->0) =     -289.81625017


--------------------------------------------------------------------------------------------------------




----------------------------------------- Iteration    1(  11)  ---------------------------------------


    POTLOK:  cpu time    0.17: real time    0.17
    SETDIJ:  cpu time    0.21: real time    0.21
     EDDAV:  cpu time   22.88: real time   22.88
       DOS:  cpu time    0.00: real time    0.00
    CHARGE:  cpu time    1.05: real time    1.05
    MIXING:  cpu time    0.01: real time    0.01
    --------------------------------------------
      LOOP:  cpu time   24.33: real time   24.33

 eigenvalue-minimisations  :  3528
 total energy-change (2. order) : 0.2675388E-03  (-0.1028250E-03)
 number of electron     448.0000012 magnetization 
 augmentation part      107.3037370 magnetization 

 Broyden mixing:
  rms(total) = 0.23802E-02    rms(broyden)= 0.23800E-02
  rms(prec ) = 0.24886E-02
  weight for this iteration     100.00

 eigenvalues of (default mixing * dielectric matrix)
  average eigenvalue GAMMA=   1.5208
  2.6702  2.4554  1.2691  1.1720  0.7791  0.7791

 Free energy of the ion-electron system (eV)
  ---------------------------------------------------
  alpha Z        PSCENC =      1209.31185597
  Ewald energy   TEWEN  =    -24958.02384207
  -Hartree energ DENC   =     -9276.69417860
  -exchange      EXHF   =         0.00000000
  -V(xc)+E(xc)   XCENC  =      1290.07121273
  PAW double counting   =     37210.03208029   -40832.95709733
  entropy T*S    EENTRO =         0.00000000
  eigenvalues    EBANDS =     -7505.19945782
  atomic energy  EATOM  =     42573.64344421
  ---------------------------------------------------
  free energy    TOTEN  =      -289.81598263 eV

  energy without entropy =     -289.81598263  energy(sigma->0) =     -289.81598263


--------------------------------------------------------------------------------------------------------




----------------------------------------- Iteration    1(  12)  ---------------------------------------


    POTLOK:  cpu time    0.17: real time    0.17
    SETDIJ:  cpu time    0.21: real time    0.21
     EDDAV:  cpu time   23.99: real time   23.99
       DOS:  cpu time    0.00: real time    0.00
    CHARGE:  cpu time    1.05: real time    1.05
    MIXING:  cpu time    0.01: real time    0.01
    --------------------------------------------
      LOOP:  cpu time   25.44: real time   25.44

 eigenvalue-minimisations  :  3744
 total energy-change (2. order) :-0.1655397E-05  (-0.3246326E-05)
 number of electron     448.0000012 magnetization 
 augmentation part      107.3028136 magnetization 

 Broyden mixing:
  rms(total) = 0.19782E-02    rms(broyden)= 0.19782E-02
  rms(prec ) = 0.20204E-02
  weight for this iteration     100.00

 eigenvalues of (default mixing * dielectric matrix)
  average eigenvalue GAMMA=   1.7774
  2.9519  2.8304  2.3174  1.3581  0.9360  1.0240  1.0240

 Free energy of the ion-electron system (eV)
  ---------------------------------------------------
  alpha Z        PSCENC =      1209.31185597
  Ewald energy   TEWEN  =    -24958.02384207
  -Hartree energ DENC   =     -9276.71175514
  -exchange      EXHF   =         0.00000000
  -V(xc)+E(xc)   XCENC  =      1290.07160201
  PAW double counting   =     37215.92294259   -40838.85763492
  entropy T*S    EENTRO =         0.00000000
  eigenvalues    EBANDS =     -7505.17259693
  atomic energy  EATOM  =     42573.64344421
  ---------------------------------------------------
  free energy    TOTEN  =      -289.81598428 eV

  energy without entropy =     -289.81598428  energy(sigma->0) =     -289.81598428


--------------------------------------------------------------------------------------------------------




----------------------------------------- Iteration    1(  13)  ---------------------------------------


    POTLOK:  cpu time    0.17: real time    0.17
    SETDIJ:  cpu time    0.21: real time    0.21
     EDDAV:  cpu time   23.14: real time   23.16
       DOS:  cpu time    0.00: real time    0.00
    CHARGE:  cpu time    1.02: real time    1.02
    MIXING:  cpu time    0.01: real time    0.01
    --------------------------------------------
      LOOP:  cpu time   24.55: real time   24.57

 eigenvalue-minimisations  :  3560
 total energy-change (2. order) :-0.2375120E-05  (-0.7753452E-06)
 number of electron     448.0000012 magnetization 
 augmentation part      107.3020483 magnetization 

 Broyden mixing:
  rms(total) = 0.32296E-03    rms(broyden)= 0.32294E-03
  rms(prec ) = 0.41211E-03
  weight for this iteration     100.00

 eigenvalues of (default mixing * dielectric matrix)
  average eigenvalue GAMMA=   1.6317
  2.6964  2.5012  2.5012  1.2032  1.2032  1.0415  0.9532  0.9532

 Free energy of the ion-electron system (eV)
  ---------------------------------------------------
  alpha Z        PSCENC =      1209.31185597
  Ewald energy   TEWEN  =    -24958.02384207
  -Hartree energ DENC   =     -9276.70793281
  -exchange      EXHF   =         0.00000000
  -V(xc)+E(xc)   XCENC  =      1290.06737826
  PAW double counting   =     37209.99725720   -40832.97788113
  entropy T*S    EENTRO =         0.00000000
  eigenvalues    EBANDS =     -7505.12626629
  atomic energy  EATOM  =     42573.64344421
  ---------------------------------------------------
  free energy    TOTEN  =      -289.81598666 eV

  energy without entropy =     -289.81598666  energy(sigma->0) =     -289.81598666


--------------------------------------------------------------------------------------------------------




----------------------------------------- Iteration    1(  14)  ---------------------------------------


    POTLOK:  cpu time    0.17: real time    0.17
    SETDIJ:  cpu time    0.21: real time    0.21
     EDDAV:  cpu time   23.27: real time   23.27
       DOS:  cpu time    0.00: real time    0.00
    CHARGE:  cpu time    1.01: real time    1.01
    MIXING:  cpu time    0.01: real time    0.01
    --------------------------------------------
      LOOP:  cpu time   24.67: real time   24.68

 eigenvalue-minimisations  :  3600
 total energy-change (2. order) : 0.2475645E-06  (-0.1623620E-06)
 number of electron     448.0000012 magnetization 
 augmentation part      107.3023468 magnetization 

 Broyden mixing:
  rms(total) = 0.28319E-03    rms(broyden)= 0.28319E-03
  rms(prec ) = 0.28959E-03
  weight for this iteration     100.00

 eigenvalues of (default mixing * dielectric matrix)
  average eigenvalue GAMMA=   1.6048
  2.6793  2.6793  2.6066  1.1643  1.1643  1.2684  1.0757  1.0757  0.7295

 Free energy of the ion-electron system (eV)
  ---------------------------------------------------
  alpha Z        PSCENC =      1209.31185597
  Ewald energy   TEWEN  =    -24958.02384207
  -Hartree energ DENC   =     -9276.71182485
  -exchange      EXHF   =         0.00000000
  -V(xc)+E(xc)   XCENC  =      1290.07041776
  PAW double counting   =     37212.36248743   -40835.33209266
  entropy T*S    EENTRO =         0.00000000
  eigenvalues    EBANDS =     -7505.13643219
  atomic energy  EATOM  =     42573.64344421
  ---------------------------------------------------
  free energy    TOTEN  =      -289.81598641 eV

  energy without entropy =     -289.81598641  energy(sigma->0) =     -289.81598641


--------------------------------------------------------------------------------------------------------




----------------------------------------- Iteration    1(  15)  ---------------------------------------


    POTLOK:  cpu time    0.17: real time    0.17
    SETDIJ:  cpu time    0.21: real time    0.21
     EDDAV:  cpu time   20.65: real time   20.66
       DOS:  cpu time    0.00: real time    0.00
    CHARGE:  cpu time    1.03: real time    1.04
    MIXING:  cpu time    0.01: real time    0.01
    --------------------------------------------
      LOOP:  cpu time   22.08: real time   22.09

 eigenvalue-minimisations  :  3056
 total energy-change (2. order) : 0.2537636E-06  (-0.6262931E-08)
 number of electron     448.0000012 magnetization 
 augmentation part      107.3023496 magnetization 

 Broyden mixing:
  rms(total) = 0.37509E-03    rms(broyden)= 0.37509E-03
  rms(prec ) = 0.37686E-03
  weight for this iteration     100.00

 eigenvalues of (default mixing * dielectric matrix)
  average eigenvalue GAMMA=   1.6906
  3.4533  2.7311  2.4354  1.5647  1.5647  1.3284  1.0112  1.0112  0.9029  0.9029

 Free energy of the ion-electron system (eV)
  ---------------------------------------------------
  alpha Z        PSCENC =      1209.31185597
  Ewald energy   TEWEN  =    -24958.02384207
  -Hartree energ DENC   =     -9276.71303949
  -exchange      EXHF   =         0.00000000
  -V(xc)+E(xc)   XCENC  =      1290.07037561
  PAW double counting   =     37213.01950656   -40835.98716644
  entropy T*S    EENTRO =         0.00000000
  eigenvalues    EBANDS =     -7505.13712052
  atomic energy  EATOM  =     42573.64344421
  ---------------------------------------------------
  free energy    TOTEN  =      -289.81598616 eV

  energy without entropy =     -289.81598616  energy(sigma->0) =     -289.81598616


--------------------------------------------------------------------------------------------------------




----------------------------------------- Iteration    1(  16)  ---------------------------------------


    POTLOK:  cpu time    0.17: real time    0.17
    SETDIJ:  cpu time    0.21: real time    0.21
     EDDAV:  cpu time   19.81: real time   19.81
       DOS:  cpu time    0.00: real time    0.00
    CHARGE:  cpu time    1.03: real time    1.03
    MIXING:  cpu time    0.01: real time    0.01
    --------------------------------------------
      LOOP:  cpu time   21.24: real time   21.24

 eigenvalue-minimisations  :  2896
 total energy-change (2. order) :-0.1248191E-06  (-0.3712417E-08)
 number of electron     448.0000012 magnetization 
 augmentation part      107.3023034 magnetization 

 Broyden mixing:
  rms(total) = 0.15111E-03    rms(broyden)= 0.15111E-03
  rms(prec ) = 0.15470E-03
  weight for this iteration     100.00

 eigenvalues of (default mixing * dielectric matrix)
  average eigenvalue GAMMA=   1.5868
  2.8439  2.5478  2.5478  1.2635  1.2635  1.3299  1.3299  1.2530  1.2530  0.9867
  0.8361

 Free energy of the ion-electron system (eV)
  ---------------------------------------------------
  alpha Z        PSCENC =      1209.31185597
  Ewald energy   TEWEN  =    -24958.02384207
  -Hartree energ DENC   =     -9276.71381375
  -exchange      EXHF   =         0.00000000
  -V(xc)+E(xc)   XCENC  =      1290.07006312
  PAW double counting   =     37212.18379887   -40835.15366611
  entropy T*S    EENTRO =         0.00000000
  eigenvalues    EBANDS =     -7505.13382653
  atomic energy  EATOM  =     42573.64344421
  ---------------------------------------------------
  free energy    TOTEN  =      -289.81598628 eV

  energy without entropy =     -289.81598628  energy(sigma->0) =     -289.81598628


--------------------------------------------------------------------------------------------------------




----------------------------------------- Iteration    1(  17)  ---------------------------------------


    POTLOK:  cpu time    0.17: real time    0.17
    SETDIJ:  cpu time    0.21: real time    0.21
     EDDAV:  cpu time   17.59: real time   17.59
       DOS:  cpu time    0.00: real time    0.00
    CHARGE:  cpu time    1.03: real time    1.03
    MIXING:  cpu time    0.01: real time    0.01
    --------------------------------------------
      LOOP:  cpu time   19.01: real time   19.01

 eigenvalue-minimisations  :  2440
 total energy-change (2. order) :-0.1322769E-07  (-0.2194495E-08)
 number of electron     448.0000012 magnetization 
 augmentation part      107.3023448 magnetization 

 Broyden mixing:
  rms(total) = 0.12718E-03    rms(broyden)= 0.12718E-03
  rms(prec ) = 0.12766E-03
  weight for this iteration     100.00

 eigenvalues of (default mixing * dielectric matrix)
  average eigenvalue GAMMA=   1.5753
  2.9374  2.6654  2.4522  1.4650  1.4650  1.3508  1.3508  1.3445  1.1272  1.0055
  0.8696  0.8696

 Free energy of the ion-electron system (eV)
  ---------------------------------------------------
  alpha Z        PSCENC =      1209.31185597
  Ewald energy   TEWEN  =    -24958.02384207
  -Hartree energ DENC   =     -9276.71423732
  -exchange      EXHF   =         0.00000000
  -V(xc)+E(xc)   XCENC  =      1290.07026007
  PAW double counting   =     37212.04993722   -40835.01758066
  entropy T*S    EENTRO =         0.00000000
  eigenvalues    EBANDS =     -7505.13582373
  atomic energy  EATOM  =     42573.64344421
  ---------------------------------------------------
  free energy    TOTEN  =      -289.81598629 eV

  energy without entropy =     -289.81598629  energy(sigma->0) =     -289.81598629


--------------------------------------------------------------------------------------------------------




----------------------------------------- Iteration    1(  18)  ---------------------------------------


    POTLOK:  cpu time    0.17: real time    0.17
    SETDIJ:  cpu time    0.21: real time    0.21
     EDDAV:  cpu time   15.26: real time   15.25
       DOS:  cpu time    0.00: real time    0.00
    CHARGE:  cpu time    1.02: real time    1.02
    MIXING:  cpu time    0.01: real time    0.01
    --------------------------------------------
      LOOP:  cpu time   16.67: real time   16.67

 eigenvalue-minimisations  :  1968
 total energy-change (2. order) :-0.6573828E-07  (-0.2905085E-09)
 number of electron     448.0000012 magnetization 
 augmentation part      107.3023473 magnetization 

 Broyden mixing:
  rms(total) = 0.40170E-04    rms(broyden)= 0.40169E-04
  rms(prec ) = 0.40365E-04
  weight for this iteration     100.00

 eigenvalues of (default mixing * dielectric matrix)
  average eigenvalue GAMMA=   1.6433
  3.0250  2.6908  2.3839  2.0494  2.0494  1.6363  1.2152  1.2152  1.2833  1.1099
  0.9796  0.8627  0.8627

 Free energy of the ion-electron system (eV)
  ---------------------------------------------------
  alpha Z        PSCENC =      1209.31185597
  Ewald energy   TEWEN  =    -24958.02384207
  -Hartree energ DENC   =     -9276.71588381
  -exchange      EXHF   =         0.00000000
  -V(xc)+E(xc)   XCENC  =      1290.07024135
  PAW double counting   =     37211.69180752   -40834.65980125
  entropy T*S    EENTRO =         0.00000000
  eigenvalues    EBANDS =     -7505.13380828
  atomic energy  EATOM  =     42573.64344421
  ---------------------------------------------------
  free energy    TOTEN  =      -289.81598636 eV

  energy without entropy =     -289.81598636  energy(sigma->0) =     -289.81598636


--------------------------------------------------------------------------------------------------------




----------------------------------------- Iteration    1(  19)  ---------------------------------------


    POTLOK:  cpu time    0.17: real time    0.17
    SETDIJ:  cpu time    0.21: real time    0.21
     EDDAV:  cpu time   15.12: real time   15.12
       DOS:  cpu time    0.00: real time    0.00
    CHARGE:  cpu time    1.02: real time    1.02
    MIXING:  cpu time    0.01: real time    0.01
    --------------------------------------------
      LOOP:  cpu time   16.53: real time   16.54

 eigenvalue-minimisations  :  1944
 total energy-change (2. order) :-0.3430614E-07  (-0.1090974E-09)
 number of electron     448.0000012 magnetization 
 augmentation part      107.3023502 magnetization 

 Broyden mixing:
  rms(total) = 0.16814E-04    rms(broyden)= 0.16813E-04
  rms(prec ) = 0.16978E-04
  weight for this iteration     100.00

 eigenvalues of (default mixing * dielectric matrix)
  average eigenvalue GAMMA=   1.6179
  2.8671  2.8671  2.4455  2.2866  1.7967  1.7967  1.1987  1.1987  1.2600  1.0597
  1.0597  1.0061  0.9041  0.9041

 Free energy of the ion-electron system (eV)
  ---------------------------------------------------
  alpha Z        PSCENC =      1209.31185597
  Ewald energy   TEWEN  =    -24958.02384207
  -Hartree energ DENC   =     -9276.71681859
  -exchange      EXHF   =         0.00000000
  -V(xc)+E(xc)   XCENC  =      1290.07021464
  PAW double counting   =     37211.44597287   -40834.41400417
  entropy T*S    EENTRO =         0.00000000
  eigenvalues    EBANDS =     -7505.13280926
  atomic energy  EATOM  =     42573.64344421
  ---------------------------------------------------
  free energy    TOTEN  =      -289.81598639 eV

  energy without entropy =     -289.81598639  energy(sigma->0) =     -289.81598639


--------------------------------------------------------------------------------------------------------




----------------------------------------- Iteration    1(  20)  ---------------------------------------


    POTLOK:  cpu time    0.17: real time    0.17
    SETDIJ:  cpu time    0.21: real time    0.21
     EDDAV:  cpu time   15.08: real time   15.08
       DOS:  cpu time    0.00: real time    0.00
    CHARGE:  cpu time    1.02: real time    1.02
    MIXING:  cpu time    0.01: real time    0.01
    --------------------------------------------
      LOOP:  cpu time   16.49: real time   16.49

 eigenvalue-minimisations  :  1928
 total energy-change (2. order) : 0.1350418E-07  (-0.4024035E-10)
 number of electron     448.0000012 magnetization 
 augmentation part      107.3023514 magnetization 

 Broyden mixing:
  rms(total) = 0.14391E-04    rms(broyden)= 0.14390E-04
  rms(prec ) = 0.14508E-04
  weight for this iteration     100.00

 eigenvalues of (default mixing * dielectric matrix)
  average eigenvalue GAMMA=   1.5735
  2.9311  2.7479  2.4876  1.8508  1.8508  2.1531  1.2761  1.2761  1.2077  1.1095
  1.0930  1.0930  0.9036  0.9036  0.7187

 Free energy of the ion-electron system (eV)
  ---------------------------------------------------
  alpha Z        PSCENC =      1209.31185597
  Ewald energy   TEWEN  =    -24958.02384207
  -Hartree energ DENC   =     -9276.71691670
  -exchange      EXHF   =         0.00000000
  -V(xc)+E(xc)   XCENC  =      1290.07021215
  PAW double counting   =     37211.46201890   -40834.42989480
  entropy T*S    EENTRO =         0.00000000
  eigenvalues    EBANDS =     -7505.13286404
  atomic energy  EATOM  =     42573.64344421
  ---------------------------------------------------
  free energy    TOTEN  =      -289.81598638 eV

  energy without entropy =     -289.81598638  energy(sigma->0) =     -289.81598638


--------------------------------------------------------------------------------------------------------




----------------------------------------- Iteration    1(  21)  ---------------------------------------


    POTLOK:  cpu time    0.17: real time    0.17
    SETDIJ:  cpu time    0.21: real time    0.21
     EDDAV:  cpu time   15.17: real time   15.17
       DOS:  cpu time    0.00: real time    0.00
    CHARGE:  cpu time    1.03: real time    1.03
    MIXING:  cpu time    0.01: real time    0.01
    --------------------------------------------
      LOOP:  cpu time   16.60: real time   16.60

 eigenvalue-minimisations  :  1944
 total energy-change (2. order) : 0.1293665E-07  (-0.1964032E-10)
 number of electron     448.0000012 magnetization 
 augmentation part      107.3023506 magnetization 

 Broyden mixing:
  rms(total) = 0.41099E-05    rms(broyden)= 0.41086E-05
  rms(prec ) = 0.41509E-05
  weight for this iteration     100.00

 eigenvalues of (default mixing * dielectric matrix)
  average eigenvalue GAMMA=   1.5566
  2.9861  2.7613  2.4322  1.9478  1.9478  1.9974  1.3225  1.3225  1.2064  1.2064
  0.9859  0.9859  0.9073  0.9073  0.9946  0.9946

 Free energy of the ion-electron system (eV)
  ---------------------------------------------------
  alpha Z        PSCENC =      1209.31185597
  Ewald energy   TEWEN  =    -24958.02384207
  -Hartree energ DENC   =     -9276.71678972
  -exchange      EXHF   =         0.00000000
  -V(xc)+E(xc)   XCENC  =      1290.07021473
  PAW double counting   =     37211.51454960   -40834.48238634
  entropy T*S    EENTRO =         0.00000000
  eigenvalues    EBANDS =     -7505.13303274
  atomic energy  EATOM  =     42573.64344421
  ---------------------------------------------------
  free energy    TOTEN  =      -289.81598637 eV

  energy without entropy =     -289.81598637  energy(sigma->0) =     -289.81598637


--------------------------------------------------------------------------------------------------------




----------------------------------------- Iteration    1(  22)  ---------------------------------------


    POTLOK:  cpu time    0.17: real time    0.17
    SETDIJ:  cpu time    0.21: real time    0.21
     EDDAV:  cpu time   15.01: real time   15.02
       DOS:  cpu time    0.00: real time    0.00
    --------------------------------------------
      LOOP:  cpu time   15.39: real time   15.40

 eigenvalue-minimisations  :  1920
 total energy-change (2. order) : 0.3215973E-08  (-0.1731265E-10)
 number of electron     448.0000012 magnetization 
 augmentation part      107.3023506 magnetization 

 Free energy of the ion-electron system (eV)
  ---------------------------------------------------
  alpha Z        PSCENC =      1209.31185597
  Ewald energy   TEWEN  =    -24958.02384207
  -Hartree energ DENC   =     -9276.71675397
  -exchange      EXHF   =         0.00000000
  -V(xc)+E(xc)   XCENC  =      1290.07021264
  PAW double counting   =     37211.52611379   -40834.49393684
  entropy T*S    EENTRO =         0.00000000
  eigenvalues    EBANDS =     -7505.13308009
  atomic energy  EATOM  =     42573.64344421
  ---------------------------------------------------
  free energy    TOTEN  =      -289.81598636 eV

  energy without entropy =     -289.81598636  energy(sigma->0) =     -289.81598636


--------------------------------------------------------------------------------------------------------




 average (electrostatic) potential at core
  the test charge radii are     0.8294  0.9698
  (the norm of the test charge is              1.0000)
       1 -42.7094       2 -42.6892       3 -42.7009       4 -42.6978       5 -42.7009
       6 -42.6978       7 -42.6998       8 -42.6989       9 -42.7004      10 -42.6984
      11 -42.7004      12 -42.6984      13 -42.7004      14 -42.6984      15 -42.7004
      16 -42.6984      17 -42.6994      18 -42.6994      19 -42.6994      20 -42.6994
      21 -42.6994      22 -42.6994      23 -42.6994      24 -42.6994      25 -42.6994
      26 -42.6994      27 -42.6994      28 -42.6994      29 -42.6994      30 -42.6994
      31 -42.6994      32 -42.6994      33 -86.3848      34 -86.3848      35 -86.3848
      36 -86.3848      37 -86.3848      38 -86.3848      39 -86.3848      40 -86.3848
      41 -86.3848      42 -86.3848      43 -86.3848      44 -86.3848      45 -86.3848
      46 -86.3848      47 -86.3848      48 -86.3848      49 -86.3880      50 -86.3817
      51 -86.3854      52 -86.3843      53 -86.3880      54 -86.3817      55 -86.3854
      56 -86.3843      57 -86.3880      58 -86.3817      59 -86.3880      60 -86.3817
      61 -86.3854      62 -86.3843      63 -86.3854      64 -86.3843
 
 
 
 E-fermi :   3.6122     XC(G=0): -10.0271     alpha+bet :-10.4970


 k-point     1 :       0.0000    0.0000    0.0000
  band No.  band energies     occupation 
      1     -37.7577      2.00000
      2     -37.7572      2.00000
      3     -37.7572      2.00000
      4     -37.7513      2.00000
      5     -37.7513      2.00000
      6     -37.7513      2.00000
      7     -37.7511      2.00000
      8     -37.7503      2.00000
      9     -37.7503      2.00000
     10     -37.7503      2.00000
     11     -37.7497      2.00000
     12     -37.7494      2.00000
     13     -37.7494      2.00000
     14     -37.7494      2.00000
     15     -37.7494      2.00000
     16     -37.7494      2.00000
     17     -37.7494      2.00000
     18     -37.7491      2.00000
     19     -37.7491      2.00000
     20     -37.7488      2.00000
     21     -37.7488      2.00000
     22     -37.7487      2.00000
     23     -37.7487      2.00000
     24     -37.7485      2.00000
     25     -37.7485      2.00000
     26     -37.7485      2.00000
     27     -37.7485      2.00000
     28     -37.7484      2.00000
     29     -37.7483      2.00000
     30     -37.7483      2.00000
     31     -37.7482      2.00000
     32     -37.7480      2.00000
     33     -37.7477      2.00000
     34     -37.7477      2.00000
     35     -37.7476      2.00000
     36     -37.7475      2.00000
     37     -37.7474      2.00000
     38     -37.7474      2.00000
     39     -37.7473      2.00000
     40     -37.7473      2.00000
     41     -37.7471      2.00000
     42     -37.7471      2.00000
     43     -37.7470      2.00000
     44     -37.7470      2.00000
     45     -37.7469      2.00000
     46     -37.7469      2.00000
     47     -37.7469      2.00000
     48     -37.7469      2.00000
     49     -37.7469      2.00000
     50     -37.7469      2.00000
     51     -37.7469      2.00000
     52     -37.7469      2.00000
     53     -37.7468      2.00000
     54     -37.7468      2.00000
     55     -37.7468      2.00000
     56     -37.7467      2.00000
     57     -37.7467      2.00000
     58     -37.7467      2.00000
     59     -37.7462      2.00000
     60     -37.7462      2.00000
     61     -37.7461      2.00000
     62     -37.7461      2.00000
     63     -37.7459      2.00000
     64     -37.7458      2.00000
     65     -37.7457      2.00000
     66     -37.7457      2.00000
     67     -37.7455      2.00000
     68     -37.7455      2.00000
     69     -37.7455      2.00000
     70     -37.7454      2.00000
     71     -37.7454      2.00000
     72     -37.7451      2.00000
     73     -37.7451      2.00000
     74     -37.7449      2.00000
     75     -37.7449      2.00000
     76     -37.7449      2.00000
     77     -37.7449      2.00000
     78     -37.7449      2.00000
     79     -37.7449      2.00000
     80     -37.7447      2.00000
     81     -37.7447      2.00000
     82     -37.7447      2.00000
     83     -37.7447      2.00000
     84     -37.7446      2.00000
     85     -37.7446      2.00000
     86     -37.7445      2.00000
     87     -37.7445      2.00000
     88     -37.7443      2.00000
     89     -37.7443      2.00000
     90     -37.7443      2.00000
     91     -37.7438      2.00000
     92     -37.7435      2.00000
     93     -37.7435      2.00000
     94     -37.7368      2.00000
     95     -37.7368      2.00000
     96     -37.7363      2.00000
     97      -9.2029      2.00000
     98      -8.4510      2.00000
     99      -8.4504      2.00000
    100      -8.4503      2.00000
    101      -8.4503      2.00000
    102      -8.4503      2.00000
    103      -8.4497      2.00000
    104      -7.9410      2.00000
    105      -7.9402      2.00000
    106      -7.9402      2.00000
    107      -7.9391      2.00000
    108      -7.9391      2.00000
    109      -7.9391      2.00000
    110      -7.9391      2.00000
    111      -7.9391      2.00000
    112      -7.9391      2.00000
    113      -7.9380      2.00000
    114      -7.9380      2.00000
    115      -7.9372      2.00000
    116      -7.8586      2.00000
    117      -7.8586      2.00000
    118      -7.8586      2.00000
    119      -7.8586      2.00000
    120      -7.4881      2.00000
    121      -7.4880      2.00000
    122      -7.4880      2.00000
    123      -7.4393      2.00000
    124      -7.4385      2.00000
    125      -7.4385      2.00000
    126      -7.4385      2.00000
    127      -7.4385      2.00000
    128      -7.4376      2.00000
    129      -1.4111      2.00000
    130      -1.4111      2.00000
    131      -1.4111      2.00000
    132      -1.4111      2.00000
    133      -0.7669      2.00000
    134      -0.7669      2.00000
    135      -0.7669      2.00000
    136      -0.2613      2.00000
    137      -0.2598      2.00000
    138      -0.2598      2.00000
    139      -0.2595      2.00000
    140      -0.2595      2.00000
    141      -0.2595      2.00000
    142      -0.2595      2.00000
    143      -0.2595      2.00000
    144      -0.2595      2.00000
    145      -0.2593      2.00000
    146      -0.2593      2.00000
    147      -0.2578      2.00000
    148       0.2077      2.00000
    149       0.2077      2.00000
    150       0.2087      2.00000
    151       0.2087      2.00000
    152       0.2090      2.00000
    153       0.2090      2.00000
    154       0.2090      2.00000
    155       0.2090      2.00000
    156       0.2093      2.00000
    157       0.2093      2.00000
    158       0.2102      2.00000
    159       0.2102      2.00000
    160       0.9019      2.00000
    161       0.9025      2.00000
    162       0.9025      2.00000
    163       0.9025      2.00000
    164       0.9025      2.00000
    165       0.9031      2.00000
    166       1.0954      2.00000
    167       1.0969      2.00000
    168       1.0969      2.00000
    169       1.0970      2.00000
    170       1.0970      2.00000
    171       1.0984      2.00000
    172       1.1160      2.00000
    173       1.1160      2.00000
    174       1.1179      2.00000
    175       1.1180      2.00000
    176       1.1180      2.00000
[...]
 total augmentation occupancy for first ion, spin component:           1
  2.002   0.000   0.000   0.000   0.000   0.000   0.000   0.000   0.000   0.000   0.000   0.000   0.000
  0.000   2.002   0.000   0.000   0.000   0.000   0.000   0.000   0.000   0.000   0.000   0.000   0.000
  0.000   0.000   2.002   0.000   0.000   0.000   0.000   0.000   0.000   0.000   0.000   0.000   0.000
  0.000   0.000   0.000   0.057   0.000   0.000   0.000   0.000   0.000   0.000   0.000   0.000   0.000
  0.000   0.000   0.000   0.000   0.057   0.000   0.000   0.000   0.000   0.000   0.000   0.000   0.000
  0.000   0.000   0.000   0.000   0.000   0.057  -0.001   0.000   0.000   0.000   0.000   0.000   0.000
  0.000   0.000   0.000   0.000   0.000  -0.001   0.792   0.011   0.000   0.000   0.000   0.000  -0.001
  0.000   0.000   0.000   0.000   0.000   0.000   0.011   0.000   0.000   0.000   0.000   0.000   0.000
  0.000   0.000   0.000   0.000   0.000   0.000   0.000   0.000   0.006   0.000   0.000   0.000   0.000
  0.000   0.000   0.000   0.000   0.000   0.000   0.000   0.000   0.000   0.006   0.000   0.000   0.000
  0.000   0.000   0.000   0.000   0.000   0.000   0.000   0.000   0.000   0.000   0.028   0.000   0.000
  0.000   0.000   0.000   0.000   0.000   0.000   0.000   0.000   0.000   0.000   0.000   0.006   0.000
  0.000   0.000   0.000   0.000   0.000   0.000  -0.001   0.000   0.000   0.000   0.000   0.000   0.028


------------------------ aborting loop because EDIFF is reached ----------------------------------------


    CHARGE:  cpu time    1.03: real time    1.03
    FORLOC:  cpu time    0.06: real time    0.06
    FORNL :  cpu time   12.84: real time   12.84
    STRESS:  cpu time   20.01: real time   20.00
    FORCOR:  cpu time    0.23: real time    0.23
    FORHAR:  cpu time    0.10: real time    0.10
    MIXING:  cpu time    0.01: real time    0.01
    OFIELD:  cpu time    0.00: real time    0.00

  FORCE on cell =-STRESS in cart. coord.  units (eV):
  Direction    XX          YY          ZZ          XY          YZ          ZX
  --------------------------------------------------------------------------------------
  Alpha Z  1209.31186  1209.31186  1209.31186
  Ewald   -8319.37573 -8319.39823 -8319.39823     0.00000     0.00000     0.00000
  Hartree  3092.24240  3092.23719  3092.23719     0.00000     0.00000     0.00000
  E(xc)   -2118.68010 -2118.68008 -2118.68008     0.00000     0.00000     0.00000
  Local     -80.57666   -80.55073   -80.55073     0.00000     0.00000     0.00000
  n-local   294.02101   293.80665   294.23263     0.00000     0.00000     0.00000
  augment   261.13250   261.13256   261.13239     0.00000    -0.00005    -0.00005
  Kinetic  5656.51865  5656.86154  5656.17695     0.00000     0.00000     0.00000
  Fock        0.00000     0.00000     0.00000     0.00000     0.00000     0.00000
  -------------------------------------------------------------------------------------
  Total      -5.40608    -5.40863    -5.40863     0.00000     0.00000     0.00000
  in kB      -7.70811    -7.71175    -7.71175     0.00000     0.00000     0.00000
  external pressure =       -7.71 kB  Pullay stress =        0.00 kB


 VOLUME and BASIS-vectors are now :
 -----------------------------------------------------------------------------
  energy-cutoff  :      525.11
  volume of cell :     1123.69
      direct lattice vectors                 reciprocal lattice vectors
    10.396370980  0.000000000  0.000000000     0.096187410  0.000000000  0.000000000
     0.000000000 10.396370980  0.000000000     0.000000000  0.096187410  0.000000000
     0.000000000  0.000000000 10.396370980     0.000000000  0.000000000  0.096187410

  length of vectors
    10.396370980 10.396370980 10.396370980     0.096187410  0.096187410  0.096187410


 FORCES acting on ions
    electron-ion (+dipol)            ewald-force                    non-local-force                 convergence-correction
 -----------------------------------------------------------------------------------------------
   -.906E+00 0.289E-14 0.421E-07   0.824E+00 0.275E-13 -.304E-13   0.949E-01 0.414E-24 -.207E-24   0.517E-07 0.822E-13 -.403E-13
   -.915E+00 0.338E-13 0.422E-07   0.833E+00 0.249E-13 -.322E-13   0.960E-01 0.000E+00 -.181E-24   0.345E-06 0.961E-13 -.530E-13
   -.598E-02 -.492E-14 0.107E-10   0.726E-02 0.249E-13 -.126E-13   -.824E-03 -.517E-25 0.258E-25   0.179E-07 -.221E-12 -.205E-13
   -.562E-02 -.471E-11 0.140E-10   0.692E-02 0.249E-13 -.144E-13   -.838E-03 0.000E+00 -.517E-25   0.123E-06 -.226E-12 -.397E-13
   -.598E-02 0.219E-13 0.392E-10   0.726E-02 0.302E-13 0.890E-15   -.824E-03 -.517E-25 0.129E-25   0.179E-07 0.629E-13 -.138E-12
   -.562E-02 -.187E-14 0.374E-10   0.692E-02 0.284E-13 0.444E-14   -.838E-03 0.517E-25 0.000E+00   0.123E-06 0.857E-13 -.121E-12
   -.972E-03 -.263E-13 -.539E-12   0.972E-03 0.409E-13 -.169E-13   -.687E-05 0.000E+00 0.000E+00   -.110E-06 -.199E-12 -.144E-12
   -.809E-03 -.614E-11 0.274E-11   0.811E-03 0.284E-13 -.133E-13   -.849E-05 -.646E-25 0.258E-25   0.155E-06 -.215E-12 -.125E-12
   -.263E-01 0.694E-01 0.694E-01   0.260E-01 -.652E-01 -.652E-01   0.258E-03 -.324E-02 -.324E-02   -.513E-07 -.362E-06 -.362E-06
   -.258E-01 -.696E-01 -.696E-01   0.255E-01 0.654E-01 0.654E-01   0.252E-03 0.324E-02 0.324E-02   0.187E-06 -.169E-06 -.169E-06
   -.263E-01 -.694E-01 0.694E-01   0.260E-01 0.652E-01 -.652E-01   0.258E-03 0.324E-02 -.324E-02   -.513E-07 0.362E-06 -.362E-06
   -.258E-01 0.696E-01 -.696E-01   0.255E-01 -.654E-01 0.654E-01   0.252E-03 -.324E-02 0.324E-02   0.187E-06 0.169E-06 -.169E-06
   -.263E-01 0.694E-01 -.694E-01   0.260E-01 -.652E-01 0.652E-01   0.258E-03 -.324E-02 0.324E-02   -.513E-07 -.362E-06 0.362E-06
   -.258E-01 -.696E-01 0.696E-01   0.255E-01 0.654E-01 -.654E-01   0.252E-03 0.324E-02 -.324E-02   0.187E-06 -.169E-06 0.169E-06
   -.263E-01 -.694E-01 -.694E-01   0.260E-01 0.652E-01 0.652E-01   0.258E-03 0.324E-02 0.324E-02   -.513E-07 0.362E-06 0.362E-06
   -.258E-01 0.696E-01 0.696E-01   0.255E-01 -.654E-01 -.654E-01   0.252E-03 -.324E-02 -.324E-02   0.187E-06 0.169E-06 0.169E-06
   0.393E+00 -.646E-14 0.228E-02   -.375E+00 -.142E-13 -.224E-02   -.149E-01 0.000E+00 -.725E-04   -.145E-05 0.872E-13 -.267E-06
   -.128E+00 -.957E-15 -.227E-03   0.115E+00 -.142E-13 0.232E-03   0.100E-01 0.517E-25 -.411E-05   0.129E-05 0.700E-13 -.411E-06
   0.463E-01 -.108E-12 0.570E-04   -.447E-01 -.320E-13 -.585E-04   -.119E-02 0.000E+00 0.132E-05   -.121E-05 -.199E-12 -.336E-06
   -.400E-01 -.151E-12 -.423E-04   0.382E-01 -.320E-13 0.402E-04   0.134E-02 0.517E-25 0.192E-05   0.113E-05 -.208E-12 -.260E-06
   0.393E+00 0.160E-13 -.228E-02   -.375E+00 -.231E-13 0.224E-02   -.149E-01 0.258E-25 0.725E-04   -.145E-05 0.987E-13 0.267E-06
   -.128E+00 0.138E-13 0.227E-03   0.115E+00 -.124E-13 -.232E-03   0.100E-01 -.103E-24 0.411E-05   0.129E-05 0.803E-13 0.411E-06
   0.463E-01 0.181E-11 -.570E-04   -.447E-01 -.142E-13 0.585E-04   -.119E-02 0.000E+00 -.132E-05   -.121E-05 -.220E-12 0.336E-06
   -.400E-01 -.773E-11 0.423E-04   0.382E-01 -.284E-13 -.402E-04   0.134E-02 -.103E-24 -.192E-05   0.113E-05 -.213E-12 0.260E-06
   0.393E+00 0.228E-02 0.506E-10   -.375E+00 -.224E-02 0.158E-13   -.149E-01 -.725E-04 0.258E-25   -.145E-05 -.267E-06 -.460E-13
   -.128E+00 -.227E-03 0.444E-10   0.115E+00 0.232E-03 0.122E-13   0.100E-01 -.411E-05 0.000E+00   0.129E-05 -.411E-06 -.216E-13
   0.393E+00 -.228E-02 0.493E-10   -.375E+00 0.224E-02 0.336E-13   -.149E-01 0.725E-04 0.000E+00   -.145E-05 0.267E-06 -.462E-13
   -.128E+00 0.227E-03 0.503E-10   0.115E+00 -.232E-03 0.194E-13   0.100E-01 0.411E-05 0.000E+00   0.129E-05 0.411E-06 -.259E-13
   0.463E-01 0.570E-04 -.823E-12   -.447E-01 -.585E-04 0.364E-13   -.119E-02 0.132E-05 -.129E-25   -.121E-05 -.336E-06 -.924E-13
   -.400E-01 -.423E-04 -.682E-11   0.382E-01 0.402E-04 0.364E-13   0.134E-02 0.192E-05 0.517E-25   0.113E-05 -.260E-06 -.134E-12
   0.463E-01 -.570E-04 -.128E-12   -.447E-01 0.585E-04 0.275E-13   -.119E-02 -.132E-05 0.517E-25   -.121E-05 0.336E-06 -.121E-12
   -.400E-01 0.423E-04 -.816E-11   0.382E-01 -.402E-04 0.133E-13   0.134E-02 -.192E-05 0.000E+00   0.113E-05 0.260E-06 -.154E-12
   0.148E+01 0.374E-13 0.828E-06   -.142E+01 0.249E-13 -.112E-13   -.116E+00 -.165E-23 0.165E-23   -.106E-05 0.910E-13 -.463E-14
   -.160E+00 0.804E-13 0.113E-06   0.158E+00 0.213E-13 -.198E-13   0.436E-02 0.737E-24 0.000E+00   0.963E-06 0.925E-13 0.177E-13
   0.511E-01 0.438E-11 -.102E-10   -.501E-01 0.169E-13 -.294E-14   -.228E-02 0.827E-24 -.414E-24   -.941E-06 -.174E-12 0.133E-13
   -.419E-01 -.481E-11 -.191E-10   0.393E-01 0.240E-13 0.255E-13   0.546E-02 0.000E+00 0.414E-24   0.948E-06 -.173E-12 0.246E-13
   0.511E-01 0.423E-13 -.390E-09   -.501E-01 0.142E-13 0.156E-13   -.228E-02 0.414E-24 0.000E+00   -.941E-06 0.823E-13 -.752E-13
   -.419E-01 0.587E-13 -.403E-09   0.393E-01 0.142E-13 0.156E-13   0.546E-02 -.103E-23 -.414E-24   0.948E-06 0.854E-13 -.108E-12
   0.211E-01 0.972E-12 0.906E-12   -.207E-01 0.178E-13 0.143E-14   -.970E-03 0.000E+00 0.000E+00   -.826E-06 -.166E-12 -.892E-13
   -.197E-01 -.181E-11 -.119E-11   0.193E-01 0.178E-13 0.143E-14   0.889E-03 0.000E+00 0.000E+00   0.950E-06 -.166E-12 -.107E-12
   0.958E-01 0.288E-03 0.288E-03   -.944E-01 -.286E-03 -.286E-03   -.284E-02 -.517E-05 -.517E-05   -.922E-06 -.208E-06 -.208E-06
   -.541E-01 -.837E-04 -.837E-04   0.531E-01 0.856E-04 0.856E-04   0.208E-02 -.193E-05 -.193E-05   0.973E-06 -.268E-06 -.268E-06
   0.958E-01 -.288E-03 0.288E-03   -.944E-01 0.286E-03 -.286E-03   -.284E-02 0.517E-05 -.517E-05   -.922E-06 0.208E-06 -.208E-06
   -.541E-01 0.837E-04 -.837E-04   0.531E-01 -.856E-04 0.856E-04   0.208E-02 0.193E-05 -.193E-05   0.973E-06 0.268E-06 -.268E-06
   0.958E-01 0.288E-03 -.288E-03   -.944E-01 -.286E-03 0.286E-03   -.284E-02 -.517E-05 0.517E-05   -.922E-06 -.208E-06 0.208E-06
   -.541E-01 -.837E-04 0.837E-04   0.531E-01 0.856E-04 -.856E-04   0.208E-02 -.193E-05 0.193E-05   0.973E-06 -.268E-06 0.268E-06
   0.958E-01 -.288E-03 -.288E-03   -.944E-01 0.286E-03 0.286E-03   -.284E-02 0.517E-05 0.517E-05   -.922E-06 0.208E-06 0.208E-06
   -.541E-01 0.837E-04 0.837E-04   0.531E-01 -.856E-04 -.856E-04   0.208E-02 0.193E-05 0.193E-05   0.973E-06 0.268E-06 0.268E-06
   -.803E-01 0.448E-13 0.150E+00   0.764E-01 -.266E-14 -.145E+00   0.765E-02 0.000E+00 -.104E-01   -.184E-06 0.833E-13 -.794E-07
   -.799E-01 0.343E-13 -.151E+00   0.760E-01 -.355E-14 0.146E+00   0.767E-02 0.000E+00 0.105E-01   0.488E-07 0.838E-13 -.313E-06
   -.249E-02 0.111E-12 0.124E-01   0.252E-02 -.799E-14 -.120E-01   -.802E-04 0.000E+00 -.941E-03   -.114E-06 -.167E-12 -.285E-06
   -.231E-02 -.926E-12 -.124E-01   0.234E-02 -.711E-14 0.120E-01   -.837E-04 0.000E+00 0.942E-03   0.799E-07 -.167E-12 -.232E-06
   -.803E-01 0.488E-13 -.150E+00   0.764E-01 -.355E-14 0.145E+00   0.765E-02 -.103E-24 0.104E-01   -.184E-06 0.906E-13 0.794E-07
   -.799E-01 0.425E-13 0.151E+00   0.760E-01 -.711E-14 -.146E+00   0.767E-02 0.827E-24 -.105E-01   0.488E-07 0.986E-13 0.313E-06
   -.249E-02 -.108E-13 -.124E-01   0.252E-02 0.000E+00 0.120E-01   -.802E-04 -.620E-24 0.941E-03   -.114E-06 -.175E-12 0.285E-06
   -.231E-02 -.572E-11 0.124E-01   0.234E-02 0.000E+00 -.120E-01   -.837E-04 0.000E+00 -.942E-03   0.799E-07 -.182E-12 0.232E-06
   -.803E-01 0.150E+00 -.456E-10   0.764E-01 -.145E+00 -.257E-13   0.765E-02 -.104E-01 0.000E+00   -.184E-06 -.794E-07 0.135E-13
   -.799E-01 -.151E+00 -.411E-10   0.760E-01 0.146E+00 -.399E-13   0.767E-02 0.105E-01 0.103E-24   0.488E-07 -.313E-06 -.192E-14
   -.803E-01 -.150E+00 -.456E-10   0.764E-01 0.145E+00 -.248E-13   0.765E-02 0.104E-01 0.000E+00   -.184E-06 0.794E-07 0.198E-13
   -.799E-01 0.151E+00 -.366E-10   0.760E-01 -.146E+00 -.256E-13   0.767E-02 -.105E-01 0.000E+00   0.488E-07 0.313E-06 0.964E-14
   -.249E-02 0.124E-01 0.148E-11   0.252E-02 -.120E-01 -.250E-13   -.802E-04 -.941E-03 0.620E-24   -.114E-06 -.285E-06 -.975E-13
   -.231E-02 -.124E-01 0.219E-11   0.234E-02 0.120E-01 -.989E-14   -.837E-04 0.942E-03 0.000E+00   0.799E-07 -.232E-06 -.802E-13
   -.249E-02 -.124E-01 0.137E-11   0.252E-02 0.120E-01 -.152E-13   -.802E-04 0.941E-03 0.414E-24   -.114E-06 0.285E-06 -.105E-12
   -.231E-02 0.124E-01 0.108E-11   0.234E-02 -.120E-01 -.276E-13   -.837E-04 -.942E-03 0.000E+00   0.799E-07 0.232E-06 -.970E-13
 -----------------------------------------------------------------------------------------------
   -.123E+00 -.233E-10 0.102E-05   0.382E-13 -.337E-13 -.132E-13   0.123E+00 0.173E-17 -.195E-17   -.912E-07 -.176E-14 -.384E-12
 
 
 POSITION                                       TOTAL-FORCE (eV/Angst)
 -----------------------------------------------------------------------------------
      0.00000      0.00000      0.00000         0.012324      0.000000      0.000000
      5.19819      0.00000      0.00000         0.013459      0.000000      0.000000
      0.00000      5.19819      0.00000         0.000459      0.000000      0.000000
      5.19819      5.19819      0.00000         0.000461      0.000000      0.000000
      0.00000      0.00000      5.19819         0.000459      0.000000      0.000000
      5.19819      0.00000      5.19819         0.000461      0.000000      0.000000
      0.00000      5.19819      5.19819        -0.000007      0.000000      0.000000
      5.19819      5.19819      5.19819        -0.000006      0.000000      0.000000
      0.00000      2.59909      2.59909        -0.000019      0.000958      0.000958
      5.19819      2.59909      2.59909        -0.000016     -0.000957     -0.000957
      0.00000      7.79728      2.59909        -0.000019     -0.000958      0.000958
      5.19819      7.79728      2.59909        -0.000016      0.000957     -0.000957
      0.00000      2.59909      7.79728        -0.000019      0.000958     -0.000958
      5.19819      2.59909      7.79728        -0.000016     -0.000957      0.000957
      0.00000      7.79728      7.79728        -0.000019     -0.000958     -0.000958
      5.19819      7.79728      7.79728        -0.000016      0.000957      0.000957
      2.59909      0.00000      2.59909         0.003064      0.000000     -0.000033
      7.79728      0.00000      2.59909        -0.002649      0.000000      0.000000
      2.59909      5.19819      2.59909         0.000364      0.000000      0.000000
      7.79728      5.19819      2.59909        -0.000417      0.000000      0.000000
      2.59909      0.00000      7.79728         0.003064      0.000000      0.000033
      7.79728      0.00000      7.79728        -0.002649      0.000000      0.000000
      2.59909      5.19819      7.79728         0.000364      0.000000      0.000000
      7.79728      5.19819      7.79728        -0.000417      0.000000      0.000000
      2.59909      2.59909      0.00000         0.003064     -0.000033      0.000000
      7.79728      2.59909      0.00000        -0.002649      0.000000      0.000000
      2.59909      7.79728      0.00000         0.003064      0.000033      0.000000
      7.79728      7.79728      0.00000        -0.002649      0.000000      0.000000
      2.59909      2.59909      5.19819         0.000364      0.000000      0.000000
      7.79728      2.59909      5.19819        -0.000417      0.000000      0.000000
      2.59909      7.79728      5.19819         0.000364      0.000000      0.000000
      7.79728      7.79728      5.19819        -0.000417      0.000000      0.000000
      2.60909      0.00000      0.00000        -0.062711      0.000000      0.000000
      7.79728      0.00000      0.00000         0.002239      0.000000      0.000000
      2.59909      5.19819      0.00000        -0.001255      0.000000      0.000000
      7.79728      5.19819      0.00000         0.002883      0.000000      0.000000
      2.59909      0.00000      5.19819        -0.001255      0.000000      0.000000
      7.79728      0.00000      5.19819         0.002883      0.000000      0.000000
      2.59909      5.19819      5.19819        -0.000496      0.000000      0.000000
      7.79728      5.19819      5.19819         0.000486      0.000000      0.000000
      2.59909      2.59909      2.59909        -0.001447     -0.000003     -0.000003
      7.79728      2.59909      2.59909         0.001104      0.000000      0.000000
      2.59909      7.79728      2.59909        -0.001447      0.000003     -0.000003
      7.79728      7.79728      2.59909         0.001104      0.000000      0.000000
      2.59909      2.59909      7.79728        -0.001447     -0.000003      0.000003
      7.79728      2.59909      7.79728         0.001104      0.000000      0.000000
      2.59909      7.79728      7.79728        -0.001447      0.000003      0.000003
      7.79728      7.79728      7.79728         0.001104      0.000000      0.000000
      0.00000      0.00000      2.59909         0.003755      0.000000     -0.005738
      5.19819      0.00000      2.59909         0.003767      0.000000      0.005779
      0.00000      5.19819      2.59909        -0.000050      0.000000     -0.000551
      5.19819      5.19819      2.59909        -0.000051      0.000000      0.000552
      0.00000      0.00000      7.79728         0.003755      0.000000      0.005738
      5.19819      0.00000      7.79728         0.003767      0.000000     -0.005779
      0.00000      5.19819      7.79728        -0.000050      0.000000      0.000551
      5.19819      5.19819      7.79728        -0.000051      0.000000     -0.000552
      0.00000      2.59909      0.00000         0.003755     -0.005738      0.000000
      5.19819      2.59909      0.00000         0.003767      0.005779      0.000000
      0.00000      7.79728      0.00000         0.003755      0.005738      0.000000
      5.19819      7.79728      0.00000         0.003767     -0.005779      0.000000
      0.00000      2.59909      5.19819        -0.000050     -0.000551      0.000000
      5.19819      2.59909      5.19819        -0.000051      0.000552      0.000000
      0.00000      7.79728      5.19819        -0.000050      0.000551      0.000000
      5.19819      7.79728      5.19819        -0.000051     -0.000552      0.000000
 -----------------------------------------------------------------------------------
    total drift:                               -0.000004      0.000000      0.000001


--------------------------------------------------------------------------------------------------------



  FREE ENERGIE OF THE ION-ELECTRON SYSTEM (eV)
  ---------------------------------------------------
  free  energy   TOTEN  =      -289.81598636 eV

  energy  without entropy=     -289.81598636  energy(sigma->0) =     -289.81598636
 


--------------------------------------------------------------------------------------------------------


    POTLOK:  cpu time    0.39: real time    0.40


--------------------------------------------------------------------------------------------------------


     LOOP+:  cpu time  526.81: real time  526.88
    4ORBIT:  cpu time    0.00: real time    0.00

 total amount of memory used by VASP on root node   133490. kBytes
========================================================================

   base      :      30000. kBytes
   nonl-proj :      14031. kBytes
   fftplans  :      33043. kBytes
   grid      :      15687. kBytes
   one-center:        105. kBytes
   wavefun   :      40624. kBytes
 
  
  
 General timing and accounting informations for this job:
 ========================================================
  
                  Total CPU time used (sec):      534.675
                            User time (sec):      519.560
                          System time (sec):       15.115
                         Elapsed time (sec):      534.993
  
                   Maximum memory used (kb):      191648.
                   Average memory used (kb):           0.
  
                          Minor page faults:      7720152
                          Major page faults:            0
                 Voluntary context switches:         2108
